Siesta Version  : 4.1.5
Architecture    : unknown
Compiler version: GNU Fortran (conda-forge gcc 12.3.0-5) 12.3.0
Compiler flags  : x86_64-conda-linux-gnu-gfortran -march=nocona -mtune=haswell -ftree-vectorizee -fPIC -fstack-protector-strong -fno-plt -O2 -ffunction-sections -pipe  -fallow-argument-mismatch
PP flags        : -DFC_HAVE_ABORT -DCDF -DNCDF -DNCDF_4
Libraries       : libncdf.a libfdict.a -llapack -lblas -lnetcdff -lnetcdf -lhdf5_hl -lhdf5 -lz
SERIAL version
NetCDF support
NetCDF-4 support

* Running in serial mode
>> Start of run:  18-MAR-2024  15:28:27

                           ***********************       
                           *  WELCOME TO SIESTA  *       
                           ***********************       

reinit: Reading from xoc.fdf

reinit: -----------------------------------------------------------------------
reinit: System Name: H2 + O2 -> H2O2 reaction
reinit: -----------------------------------------------------------------------
reinit: System Label: xoc
reinit: -----------------------------------------------------------------------

initatom: Reading input for the pseudopotentials and atomic orbitals ----------
Species number:   1 Atomic number:    8 Label: O
Species number:   2 Atomic number:    1 Label: H

Ground state valence configuration:   2s02  2p04
Reading pseudopotential information in formatted form from O.psf

Pseudopotential generated from a relativistic atomic calculation

Valence configuration for pseudopotential generation:
2s( 2.00) rc: 1.14
2p( 4.00) rc: 1.14
3d( 0.00) rc: 1.14
4f( 0.00) rc: 1.14
Ground state valence configuration:   1s01
Reading pseudopotential information in unformatted form from H.vps

Valence configuration for pseudopotential generation:
1s( 1.00) rc: 1.25
2p( 0.00) rc: 1.25
3d( 0.00) rc: 1.25
4f( 0.00) rc: 1.25
For O, standard SIESTA heuristics set lmxkb to 3
 (one more than the basis l, including polarization orbitals).
Use PS.lmax or PS.KBprojectors blocks to override.
For H, standard SIESTA heuristics set lmxkb to 2
 (one more than the basis l, including polarization orbitals).
Use PS.lmax or PS.KBprojectors blocks to override.

<basis_specs>
===============================================================================
O                    Z=   8    Mass=  16.000        Charge=-0.18518    
Lmxo=2 Lmxkb= 3    BasisType=split      Semic=F
L=0  Nsemic=0  Cnfigmx=2
          i=1  nzeta=2  polorb=0  (2s)
            splnorm:   0.15000    
               vcte:    87.074    
               rinn:    4.7393    
               qcoe:    0.0000    
               qyuk:    0.0000    
               qwid:   0.10000E-01
                rcs:    7.3294      4.6037    
            lambdas:    1.0000      1.0000    
L=1  Nsemic=0  Cnfigmx=2
          i=1  nzeta=2  polorb=0  (2p)
            splnorm:   0.15000    
               vcte:    68.296    
               rinn:    4.9704    
               qcoe:    0.0000    
               qyuk:    0.0000    
               qwid:   0.10000E-01
                rcs:    6.6025      3.0467    
            lambdas:    1.0000      1.0000    
L=2  Nsemic=0  Cnfigmx=3
          i=1  nzeta=1  polorb=0  (3d)
            splnorm:   0.15000    
               vcte:    91.071    
               rinn:    3.9512    
               qcoe:    0.0000    
               qyuk:    0.0000    
               qwid:   0.10000E-01
                rcs:    6.8934    
            lambdas:    1.0000    
-------------------------------------------------------------------------------
L=0  Nkbl=1  erefs: 0.17977+309
L=1  Nkbl=1  erefs: 0.17977+309
L=2  Nkbl=1  erefs: 0.17977+309
L=3  Nkbl=1  erefs: 0.17977+309
===============================================================================
</basis_specs>

atom: Called for O                     (Z =   8)

read_vps: Pseudopotential generation method:
read_vps: ATM3      Troullier-Martins                       
Valence charge for ps generation:    6.00000

read_vps: Pseudopotential includes a core correction:
read_vps: Pseudo-core for xc-correction

xc_check: Exchange-correlation functional:
xc_check: GGA Perdew, Burke & Ernzerhof 1996
V l=0 = -2*Zval/r beyond r=  1.1278
V l=1 = -2*Zval/r beyond r=  1.1278
V l=2 = -2*Zval/r beyond r=  1.1278
V l=3 = -2*Zval/r beyond r=  1.1278
All V_l potentials equal beyond r=  1.1278
This should be close to max(r_c) in ps generation
All pots = -2*Zval/r beyond r=  1.1278

VLOCAL1: 99.0% of the norm of Vloc inside     34.126 Ry
VLOCAL1: 99.9% of the norm of Vloc inside     77.774 Ry
atom: Maximum radius for 4*pi*r*r*local-pseudopot. charge    1.37759
atom: Maximum radius for r*vlocal+2*Zval:    1.18566
GHOST: No ghost state for L =  0
GHOST: No ghost state for L =  1
GHOST: No ghost state for L =  2
GHOST: No ghost state for L =  3

KBgen: Kleinman-Bylander projectors: 
   l= 0   rc=  1.360471   el= -1.759790   Ekb=  9.210761   kbcos=  0.328866
   l= 1   rc=  1.360471   el= -0.663797   Ekb= -7.921990   kbcos= -0.392961
   l= 2   rc=  1.791199   el=  0.002031   Ekb= -1.950550   kbcos= -0.003498
   l= 3   rc=  2.107308   el=  0.003153   Ekb= -0.856060   kbcos= -0.000334

KBgen: Total number of Kleinman-Bylander projectors:   16
atom: -------------------------------------------------------------------------

atom: SANKEY-TYPE ORBITALS:
atom: Selected multiple-zeta basis: split     

atom: basis set generated (by rescaling the valence charge)
atom: for an anion of charge  -0.1852

SPLIT: Orbitals with angular momentum L= 0

SPLIT: Basis orbitals for state 2s

   izeta = 1
                 lambda =    1.000000
                     rc =    7.356000
                 energy =   -1.758588
                kinetic =    1.491851
    potential(screened) =   -3.250439
       potential(ionic) =  -11.062471

   izeta = 2
                 rmatch =    4.690281
              splitnorm =    0.003309
                 energy =   -1.757602
* WARNING: effective split_norm is quite small. Orbitals will be very similar.
                kinetic =    1.574378
    potential(screened) =   -3.331980
       potential(ionic) =  -11.238433

SPLIT: Orbitals with angular momentum L= 1

SPLIT: Basis orbitals for state 2p

   izeta = 1
                 lambda =    1.000000
                     rc =    6.655955
                 energy =   -0.659921
                kinetic =    4.410674
    potential(screened) =   -5.070596
       potential(ionic) =  -12.498772

   izeta = 2
                 rmatch =    3.066256
              splitnorm =    0.127283
                 energy =   -0.537509
                kinetic =    6.271972
    potential(screened) =   -6.809481
       potential(ionic) =  -15.130217

SPLIT: Orbitals with angular momentum L= 2

SPLIT: Basis orbitals for state 3d

   izeta = 1
                 lambda =    1.000000
                     rc =    6.997229
                 energy =    0.764795
                kinetic =    1.136799
    potential(screened) =   -0.372004
       potential(ionic) =   -3.984199
atom: Total number of Sankey-type orbitals: 13

atm_pop: Valence configuration (for local Pseudopot. screening):
 2s( 2.00)                                                            
 2p( 4.00)                                                            
 3d( 0.00)                                                            
Vna: chval, zval:    6.00000   6.00000

Vna:  Cut-off radius for the neutral-atom potential:   7.356000
comcore: Pseudo-core radius Rcore=  1.377587

atom: _________________________________________________________________________

<basis_specs>
===============================================================================
H                    Z=   1    Mass=  1.0100        Charge= 0.22000    
Lmxo=1 Lmxkb= 2    BasisType=split      Semic=F
L=0  Nsemic=0  Cnfigmx=1
          i=1  nzeta=2  polorb=0  (1s)
            splnorm:   0.15000    
               vcte:    2.0700    
               rinn:    0.0000    
               qcoe:    0.0000    
               qyuk:    0.0000    
               qwid:   0.10000E-01
                rcs:    4.9710      1.7710    
            lambdas:    1.0000      1.0000    
L=1  Nsemic=0  Cnfigmx=2
          i=1  nzeta=1  polorb=0  (2p)
            splnorm:   0.15000    
               vcte:   0.89000    
               rinn:   0.10000E-01
               qcoe:    0.0000    
               qyuk:    0.0000    
               qwid:   0.10000E-01
                rcs:    4.9880    
            lambdas:    1.0000    
-------------------------------------------------------------------------------
L=0  Nkbl=1  erefs: 0.17977+309
L=1  Nkbl=1  erefs: 0.17977+309
L=2  Nkbl=1  erefs: 0.17977+309
===============================================================================
</basis_specs>

atom: Called for H                     (Z =   1)

read_vps: Pseudopotential generation method:
read_vps: ATM3      Troullier-Martins                       
Valence charge for ps generation:    1.00000

xc_check: Exchange-correlation functional:
xc_check: GGA Perdew, Burke & Ernzerhof 1996
V l=0 = -2*Zval/r beyond r=  1.2343
V l=1 = -2*Zval/r beyond r=  1.2189
V l=2 = -2*Zval/r beyond r=  1.2189
All V_l potentials equal beyond r=  1.2343
This should be close to max(r_c) in ps generation
All pots = -2*Zval/r beyond r=  1.2343

VLOCAL1: 99.0% of the norm of Vloc inside     28.493 Ry
VLOCAL1: 99.9% of the norm of Vloc inside     64.935 Ry
atom: Maximum radius for 4*pi*r*r*local-pseudopot. charge    1.45251
atom: Maximum radius for r*vlocal+2*Zval:    1.21892
GHOST: No ghost state for L =  0
GHOST: No ghost state for L =  1
GHOST: No ghost state for L =  2

KBgen: Kleinman-Bylander projectors: 
   l= 0   rc=  1.364359   el= -0.477200   Ekb= -2.021939   kbcos= -0.344793
   l= 1   rc=  1.434438   el=  0.001076   Ekb= -0.443447   kbcos= -0.022843
   l= 2   rc=  1.470814   el=  0.002010   Ekb= -0.140543   kbcos= -0.002863

KBgen: Total number of Kleinman-Bylander projectors:    9
atom: -------------------------------------------------------------------------

atom: SANKEY-TYPE ORBITALS:
atom: Selected multiple-zeta basis: split     

atom: basis set generated (by rescaling the valence charge)
atom: for a cation of charge   0.2200

SPLIT: Orbitals with angular momentum L= 0

SPLIT: Basis orbitals for state 1s

   izeta = 1
                 lambda =    1.000000
                     rc =    4.950554
                 energy =   -0.678603
                kinetic =    1.118239
    potential(screened) =   -1.796842
       potential(ionic) =   -2.106311

   izeta = 2
                 rmatch =    1.774652
              splitnorm =    0.672347
                 energy =    1.027037
                kinetic =    4.730146
    potential(screened) =   -3.703109
       potential(ionic) =   -3.968059

SPLIT: Orbitals with angular momentum L= 1

SPLIT: Basis orbitals for state 2p

   izeta = 1
                 lambda =    1.000000
                     rc =    5.075940
                 energy =    0.310352
                kinetic =    0.887169
    potential(screened) =   -0.576817
       potential(ionic) =   -0.872649
atom: Total number of Sankey-type orbitals:  5

atm_pop: Valence configuration (for local Pseudopot. screening):
 1s( 1.00)                                                            
 2p( 0.00)                                                            
Vna: chval, zval:    1.00000   1.00000

Vna:  Cut-off radius for the neutral-atom potential:   4.950554

atom: _________________________________________________________________________

prinput: Basis input ----------------------------------------------------------

PAO.BasisType split     

%block ChemicalSpeciesLabel
    1    8 O                       # Species index, atomic number, species label
    2    1 H                       # Species index, atomic number, species label
%endblock ChemicalSpeciesLabel

%block PAO.Basis                 # Define Basis set
O                     3  -0.185            # Label, l-shells, ionic net charge
 n=2   0   2                         # n, l, Nzeta 
   7.356      4.690   
   1.000      1.000   
 n=2   1   2                         # n, l, Nzeta 
   6.656      3.066   
   1.000      1.000   
 n=3   2   1                         # n, l, Nzeta 
   6.997   
   1.000   
H                     2   0.220            # Label, l-shells, ionic net charge
 n=1   0   2                         # n, l, Nzeta 
   4.951      1.775   
   1.000      1.000   
 n=2   1   1                         # n, l, Nzeta 
   5.076   
   1.000   
%endblock PAO.Basis

prinput: ----------------------------------------------------------------------

Dumping basis to NetCDF file O.ion.nc
Dumping basis to NetCDF file H.ion.nc
coor:   Atomic-coordinates input format  =     Cartesian coordinates
coor:                                          (in Angstroms)

ioxv: Reading coordinates and velocities from file
! Info in XV file prevails over previous structure input
WARNING: xoc.VERLET_RESTART not found--reading only XV file and moving back 1 time step using Euler

siesta: Atomic coordinates (Bohr) and species
siesta:      2.54835  -0.01100   0.00030  1        1
siesta:      5.01055   0.00900  -0.00170  1        2
siesta:     12.84052   0.00600   0.00130  2        3
siesta:     14.24566   0.02600   0.02130  2        4

siesta: System type = chain     

initatomlists: Number of atoms, orbitals, and projectors:      4    36    50

coxmol: Writing XMOL coordinates into file xoc.xyz                                                             

siesta: ******************** Simulation parameters ****************************
siesta:
siesta: The following are some of the parameters of the simulation.
siesta: A complete list of the parameters used, including default values,
siesta: can be found in file out.fdf
siesta:
redata: Spin configuration                          = none
redata: Number of spin components                   = 1
redata: Time-Reversal Symmetry                      = T
redata: Spin spiral                                 = F
redata: Long output                                 =   F
redata: Number of Atomic Species                    =        2
redata: Charge density info will appear in .RHO file
redata: Write Mulliken Pop.                         = NO
redata: Matel table size (NRTAB)                    =     1024
redata: Mesh Cutoff                                 =   200.0000 Ry
redata: Net charge of the system                    =     0.0000 |e|
redata: Min. number of SCF Iter                     =        0
redata: Max. number of SCF Iter                     =      150
redata: SCF convergence failure will abort job
redata: SCF mix quantity                            = Hamiltonian
redata: Mix DM or H after convergence               =   F
redata: Recompute H after scf cycle                 =   F
redata: Mix DM in first SCF step                    =   T
redata: Write Pulay info on disk                    =   F
redata: New DM Occupancy tolerance                  = 0.000000000001
redata: No kicks to SCF
redata: DM Mixing Weight for Kicks                  =     0.5000
redata: Require Harris convergence for SCF          =   F
redata: Harris energy tolerance for SCF             =     0.000100 eV
redata: Require DM convergence for SCF              =   T
redata: DM tolerance for SCF                        =     0.000300
redata: Require EDM convergence for SCF             =   F
redata: EDM tolerance for SCF                       =     0.001000 eV
redata: Require H convergence for SCF               =   T
redata: Hamiltonian tolerance for SCF               =     0.001000 eV
redata: Require (free) Energy convergence for SCF   =   F
redata: (free) Energy tolerance for SCF             =     0.000100 eV
redata: Using Saved Data (generic)                  =   T
redata: Use continuation files for DM               =   T
redata: Neglect nonoverlap interactions             =   F
redata: Method of Calculation                       = Diagonalization
redata: Electronic Temperature                      =   290.1109 K
redata: Fix the spin of the system                  =   F
redata: Dynamics option                             = Verlet MD run
redata: Initial MD time step                        =        1
redata:   Final MD time step                        =      200
redata: Length of MD time step                      =     1.0000 fs
redata: Initial Temperature of MD run               =     0.0000 K
redata: Perform a MD quench                         =   F
mix.SCF: Pulay mixing                            = Pulay
mix.SCF:    Variant                              = stable
mix.SCF:    History steps                        = 6
mix.SCF:    Linear mixing weight                 =     0.020000
mix.SCF:    Mixing weight                        =     0.020000
mix.SCF:    SVD condition                        = 0.1000E-07
redata: Save all siesta data in one NC              =   F
redata: ***********************************************************************

%block SCF.Mixers
  Pulay
%endblock SCF.Mixers

%block SCF.Mixer.Pulay
  # Mixing method
  method pulay
  variant stable

  # Mixing options
  weight 0.0200
  weight.linear 0.0200
  history 6
%endblock SCF.Mixer.Pulay

Size of DM history Fstack: 1
Total number of electrons:    14.000000
Total ionic charge:    14.000000
 Kpoints in:            1 . Kpoints trimmed:            1

siesta: k-grid: Number of k-points =     1
siesta: k-grid: Cutoff (effective) =     5.000 Ang
siesta: k-grid: Supercell and displacements
siesta: k-grid:    1   0   0      0.000
siesta: k-grid:    0   1   0      0.000
siesta: k-grid:    0   0   1      0.000

diag: Algorithm                                     = D&C
diag: Used triangular part                          = Lower
diag: Absolute tolerance                            =  0.100E-15
diag: Orthogonalization factor                      =  0.100E-05
diag: Memory factor                                 =  1.0000


ts: **************************************************************
ts: Save H and S matrices                           =    F
ts: Save DM and EDM matrices                        =    F
ts: Only save the overlap matrix S                  =    F
ts: **************************************************************

************************ Begin: TS CHECKS AND WARNINGS ************************
************************ End: TS CHECKS AND WARNINGS **************************


                     ====================================
                        Begin MD step =      1
                     ====================================

outcell: Unit cell vectors (Ang):
       10.000000    0.000000    0.000000
        0.000000   10.000000    0.000000
        0.000000    0.000000   10.000000

outcell: Cell vector modules (Ang)   :   10.000000   10.000000   10.000000
outcell: Cell angles (23,13,12) (deg):     90.0000     90.0000     90.0000
outcell: Cell volume (Ang**3)        :   1000.0000
Gamma-point calculation with multiply-connected orbital pairs
Gamma-point calculation with multiply-connected orbital pairs
Folding of H and S implicitly performed
Folding of H and S implicitly performed
<dSpData1D:S at geom step 1
  <sparsity:sparsity for geom step 1
    nrows_g=36 nrows=36 sparsity=.9383 nnzs=1216, refcount: 7>
  <dData1D:(new from dSpData1D) n=1216, refcount: 1>
refcount: 1>
new_DM -- step:     1
Initializing Density Matrix...

Attempting to read DM from file... Failed...
DM filled with atomic data:
<dSpData2D:DM initialized from atoms
  <sparsity:sparsity for geom step 1
    nrows_g=36 nrows=36 sparsity=.9383 nnzs=1216, refcount: 8>
  <dData2D:DM n=1216 m=1, refcount: 1>
refcount: 1>
No. of atoms with KB's overlaping orbs in proc 0. Max # of overlaps:       4      26
New grid distribution:   1
           1       1:   45    1:   45    1:   45

InitMesh: MESH =    90 x    90 x    90 =      729000
InitMesh: (bp) =    45 x    45 x    45 =       91125
InitMesh: Mesh cutoff (required, used) =   200.000   223.865 Ry
ExtMesh (bp) on 0 =   117 x   117 x   117 =     1601613
PhiOnMesh: Number of (b)points on node 0 =                91125
PhiOnMesh: nlist on node 0 =               451108

stepf: Fermi-Dirac step function

siesta: Program's energy decomposition (eV):
siesta: Ebs     =      -190.969830
siesta: Eions   =      1592.294315
siesta: Ena     =       380.185091
siesta: Ekin    =       663.515392
siesta: Enl     =      -100.331334
siesta: Eso     =         0.000000
siesta: Edftu   =         0.000000
siesta: DEna    =       -43.082020
siesta: DUscf   =         3.009879
siesta: DUext   =         0.000000
siesta: Exc     =      -210.916835
siesta: eta*DQ  =         0.000000
siesta: Emadel  =         0.000000
siesta: Emeta   =         0.000000
siesta: Emolmec =         0.000000
siesta: Ekinion =         0.000000
siesta: Eharris =      -900.644519
siesta: Etot    =      -899.914142
siesta: FreeEng =      -899.983456

        iscf     Eharris(eV)        E_KS(eV)     FreeEng(eV)     dDmax    Ef(eV) dHmax(eV)
   scf:    1     -900.644519     -899.914142     -899.983456  3.370669 -9.438926  4.728496
timer: Routine,Calls,Time,% = IterSCF        1       1.393  38.92
   scf:    2     -899.996313     -899.955353     -900.024668  0.062619 -9.348800  4.569901
   scf:    3     -900.968812     -900.590125     -900.659439  2.458747 -6.780724  0.575006
   scf:    4     -900.028632     -900.359317     -900.428632  1.911343 -5.429159  3.267561
   scf:    5     -900.720836     -900.601425     -900.670739  1.747592 -6.899738  0.145465
   scf:    6     -900.601976     -900.601730     -900.671045  0.036840 -6.865382  0.071371
   scf:    7     -900.591332     -900.597355     -900.666665  0.197356 -7.042030  0.444685
   scf:    8     -900.604205     -900.601306     -900.670617  0.132667 -6.905763  0.160952
   scf:    9     -900.601899     -900.601618     -900.670929  0.021060 -6.881341  0.109551
   scf:   10     -900.601928     -900.601881     -900.671196  0.054981 -6.821681  0.030744
   scf:   11     -900.601907     -900.601898     -900.671213  0.012410 -6.834267  0.002829
   scf:   12     -900.601898     -900.601898     -900.671213  0.000080 -6.834177  0.002960
   scf:   13     -900.601898     -900.601898     -900.671213  0.000284 -6.834072  0.003061
   scf:   14     -900.601898     -900.601898     -900.671213  0.000127 -6.833978  0.003106
   scf:   15     -900.601898     -900.601898     -900.671213  0.000834 -6.833831  0.002088
   scf:   16     -900.601898     -900.601898     -900.671213  0.000103 -6.833789  0.001920
   scf:   17     -900.601897     -900.601898     -900.671212  0.000431 -6.833564  0.001616
   scf:   18     -900.601898     -900.601898     -900.671213  0.000552 -6.832757  0.000149
   scf:   19     -900.601898     -900.601898     -900.671213  0.000001 -6.832759  0.000141

SCF Convergence by DM+H criterion
max |DM_out - DM_in|         :     0.0000010769
max |H_out - H_in|      (eV) :     0.0001411249
SCF cycle converged after 19 iterations

Using DM_out to compute the final energy and forces
No. of atoms with KB's overlaping orbs in proc 0. Max # of overlaps:       4      26

siesta: E_KS(eV) =             -900.6019

siesta: E_KS - E_eggbox =      -900.6019

siesta: Atomic forces (eV/Ang):
----------------------------------------
   Tot   -0.000229   -0.000020    0.000049
----------------------------------------
   Max    0.160799
   Res    0.066426    sqrt( Sum f_i^2 / 3N )
----------------------------------------
   Max    0.160799    constrained

Stress tensor Voigt[x,y,z,yz,xz,xy] (kbar):       -9.53       -0.07       -0.15       -0.08        0.05        0.10
(Free)E + p*V (eV/cell)     -898.6415
Target enthalpy (eV/cell)     -900.6712

siesta: Stress tensor (static) (eV/Ang**3):
        -0.000047   -0.000001    0.000001
        -0.000001    0.000006   -0.000000
         0.000001   -0.000000    0.000006

siesta: Pressure (static):          0.01869280  kBar

siesta: Stress tensor (total) (eV/Ang**3):
        -0.005947    0.000064    0.000029
         0.000064   -0.000047   -0.000048
         0.000029   -0.000048   -0.000096

siesta: Pressure (total):          3.25197611  kBar

siesta: Temp_ion =    7863.115 K

                     ====================================
                        Begin MD step =      2
                     ====================================

outcell: Unit cell vectors (Ang):
       10.000000    0.000000    0.000000
        0.000000   10.000000    0.000000
        0.000000    0.000000   10.000000

outcell: Cell vector modules (Ang)   :   10.000000   10.000000   10.000000
outcell: Cell angles (23,13,12) (deg):     90.0000     90.0000     90.0000
outcell: Cell volume (Ang**3)        :   1000.0000
Gamma-point calculation with multiply-connected orbital pairs
Gamma-point calculation with multiply-connected orbital pairs
Folding of H and S implicitly performed
Folding of H and S implicitly performed
<dSpData1D:S at geom step 2
  <sparsity:sparsity for geom step 2
    nrows_g=36 nrows=36 sparsity=.9383 nnzs=1216, refcount: 7>
  <dData1D:(new from dSpData1D) n=1216, refcount: 1>
refcount: 1>
new_DM -- step:     2
Re-using DM from previous geometries...
Number of DMs in history: 1
 DM extrapolation coefficients: 
1   1.00000
New DM after history re-use:
<dSpData2D:SpM extrapolated using coords
  <sparsity:sparsity for geom step 2
    nrows_g=36 nrows=36 sparsity=.9383 nnzs=1216, refcount: 9>
  <dData2D:(temp array for extrapolation) n=1216 m=1, refcount: 1>
refcount: 1>
Note: For starting DM, Qtot, Tr[D*S] =         14.00000000         14.01589087
No. of atoms with KB's overlaping orbs in proc 0. Max # of overlaps:       4      26
New grid distribution:   1
           1       1:   45    1:   45    1:   45

InitMesh: MESH =    90 x    90 x    90 =      729000
InitMesh: (bp) =    45 x    45 x    45 =       91125
InitMesh: Mesh cutoff (required, used) =   200.000   223.865 Ry
ExtMesh (bp) on 0 =   117 x   117 x   117 =     1601613
PhiOnMesh: Number of (b)points on node 0 =                91125
PhiOnMesh: nlist on node 0 =               451292

        iscf     Eharris(eV)        E_KS(eV)     FreeEng(eV)     dDmax    Ef(eV) dHmax(eV)
   scf:    1     -900.487708     -900.593295     -900.662610  0.148148 -6.888217  0.186478
   scf:    2     -900.592882     -900.593603     -900.662917  0.192775 -6.721270  0.161878
   scf:    3     -900.594330     -900.594055     -900.663369  0.079040 -6.789042  0.027743
   scf:    4     -900.594066     -900.594074     -900.663389  0.007833 -6.785435  0.019222
   scf:    5     -900.594079     -900.594077     -900.663391  0.001160 -6.786457  0.019248
   scf:    6     -900.594042     -900.594064     -900.663378  0.019008 -6.770988  0.032156
   scf:    7     -900.593999     -900.594056     -900.663371  0.033715 -6.800118  0.040669
   scf:    8     -900.594105     -900.594086     -900.663401  0.014673 -6.785362  0.006470
   scf:    9     -900.594087     -900.594087     -900.663402  0.002207 -6.783030  0.000102
   scf:   10     -900.594087     -900.594087     -900.663402  0.000003 -6.783029  0.000100

SCF Convergence by DM+H criterion
max |DM_out - DM_in|         :     0.0000031820
max |H_out - H_in|      (eV) :     0.0000997481
SCF cycle converged after 10 iterations

Using DM_out to compute the final energy and forces
No. of atoms with KB's overlaping orbs in proc 0. Max # of overlaps:       4      26

siesta: E_KS(eV) =             -900.5941

siesta: Atomic forces (eV/Ang):
----------------------------------------
   Tot    0.000464    0.000527    0.000319
----------------------------------------
   Max    0.625585
   Res    0.338236    sqrt( Sum f_i^2 / 3N )
----------------------------------------
   Max    0.625585    constrained

Stress tensor Voigt[x,y,z,yz,xz,xy] (kbar):      -11.18       -0.08       -0.16       -0.08        0.00        0.06
(Free)E + p*V (eV/cell)     -898.2889
Target enthalpy (eV/cell)     -900.6634

siesta: Stress tensor (static) (eV/Ang**3):
        -0.001078   -0.000029   -0.000027
        -0.000029    0.000005   -0.000001
        -0.000027   -0.000001    0.000004

siesta: Pressure (static):          0.57116272  kBar

siesta: Stress tensor (total) (eV/Ang**3):
        -0.006978    0.000036    0.000001
         0.000036   -0.000048   -0.000049
         0.000001   -0.000049   -0.000098

siesta: Pressure (total):          3.80444604  kBar

siesta: Temp_ion =    7845.693 K

                     ====================================
                        Begin MD step =      3
                     ====================================

outcell: Unit cell vectors (Ang):
       10.000000    0.000000    0.000000
        0.000000   10.000000    0.000000
        0.000000    0.000000   10.000000

outcell: Cell vector modules (Ang)   :   10.000000   10.000000   10.000000
outcell: Cell angles (23,13,12) (deg):     90.0000     90.0000     90.0000
outcell: Cell volume (Ang**3)        :   1000.0000
Gamma-point calculation with multiply-connected orbital pairs
Gamma-point calculation with multiply-connected orbital pairs
Folding of H and S implicitly performed
Folding of H and S implicitly performed
<dSpData1D:S at geom step 3
  <sparsity:sparsity for geom step 3
    nrows_g=36 nrows=36 sparsity=.9383 nnzs=1216, refcount: 7>
  <dData1D:(new from dSpData1D) n=1216, refcount: 1>
refcount: 1>
new_DM -- step:     3
Re-using DM from previous geometries...
Number of DMs in history: 1
 DM extrapolation coefficients: 
1   1.00000
New DM after history re-use:
<dSpData2D:SpM extrapolated using coords
  <sparsity:sparsity for geom step 3
    nrows_g=36 nrows=36 sparsity=.9383 nnzs=1216, refcount: 9>
  <dData2D:(temp array for extrapolation) n=1216 m=1, refcount: 1>
refcount: 1>
No. of atoms with KB's overlaping orbs in proc 0. Max # of overlaps:       4      26
New grid distribution:   1
           1       1:   45    1:   45    1:   45

InitMesh: MESH =    90 x    90 x    90 =      729000
InitMesh: (bp) =    45 x    45 x    45 =       91125
InitMesh: Mesh cutoff (required, used) =   200.000   223.865 Ry
ExtMesh (bp) on 0 =   117 x   117 x   117 =     1601613
PhiOnMesh: Number of (b)points on node 0 =                91125
PhiOnMesh: nlist on node 0 =               451204

        iscf     Eharris(eV)        E_KS(eV)     FreeEng(eV)     dDmax    Ef(eV) dHmax(eV)
   scf:    1     -900.443479     -900.586982     -900.656297  0.202525 -6.749295  0.061360
   scf:    2     -900.587084     -900.587122     -900.656437  0.084492 -6.731085  0.038846
   scf:    3     -900.587230     -900.587190     -900.656505  0.031886 -6.737917  0.014768
   scf:    4     -900.587212     -900.587208     -900.656522  0.009781 -6.736327  0.003433
   scf:    5     -900.587203     -900.587207     -900.656521  0.002337 -6.737250  0.001925
   scf:    6     -900.587205     -900.587206     -900.656521  0.004194 -6.736778  0.003399
   scf:    7     -900.587208     -900.587208     -900.656523  0.002643 -6.737255  0.000523
   scf:    8     -900.587208     -900.587208     -900.656523  0.000654 -6.737184  0.000083
   scf:    9     -900.587208     -900.587208     -900.656523  0.000010 -6.737179  0.000018

SCF Convergence by DM+H criterion
max |DM_out - DM_in|         :     0.0000099708
max |H_out - H_in|      (eV) :     0.0000181232
SCF cycle converged after 9 iterations

Using DM_out to compute the final energy and forces
No. of atoms with KB's overlaping orbs in proc 0. Max # of overlaps:       4      26

siesta: E_KS(eV) =             -900.5872

siesta: Atomic forces (eV/Ang):
----------------------------------------
   Tot   -0.000315    0.000045   -0.000054
----------------------------------------
   Max    1.073408
   Res    0.506928    sqrt( Sum f_i^2 / 3N )
----------------------------------------
   Max    1.073408    constrained

Stress tensor Voigt[x,y,z,yz,xz,xy] (kbar):      -12.14       -0.08       -0.17       -0.09       -0.06       -0.00
(Free)E + p*V (eV/cell)     -898.0781
Target enthalpy (eV/cell)     -900.6565

siesta: Stress tensor (static) (eV/Ang**3):
        -0.001695   -0.000060   -0.000056
        -0.000060    0.000002   -0.000005
        -0.000056   -0.000005   -0.000002

siesta: Pressure (static):          0.90504597  kBar

siesta: Stress tensor (total) (eV/Ang**3):
        -0.007579   -0.000003   -0.000037
        -0.000003   -0.000051   -0.000054
        -0.000037   -0.000054   -0.000105

siesta: Pressure (total):          4.13116544  kBar

siesta: Temp_ion =    7829.162 K

                     ====================================
                        Begin MD step =      4
                     ====================================

outcell: Unit cell vectors (Ang):
       10.000000    0.000000    0.000000
        0.000000   10.000000    0.000000
        0.000000    0.000000   10.000000

outcell: Cell vector modules (Ang)   :   10.000000   10.000000   10.000000
outcell: Cell angles (23,13,12) (deg):     90.0000     90.0000     90.0000
outcell: Cell volume (Ang**3)        :   1000.0000
Gamma-point calculation with multiply-connected orbital pairs
Gamma-point calculation with multiply-connected orbital pairs
Folding of H and S implicitly performed
Folding of H and S implicitly performed
<dSpData1D:S at geom step 4
  <sparsity:sparsity for geom step 4
    nrows_g=36 nrows=36 sparsity=.9336 nnzs=1210, refcount: 7>
  <dData1D:(new from dSpData1D) n=1210, refcount: 1>
refcount: 1>
new_DM -- step:     4
Re-using DM from previous geometries...
Number of DMs in history: 1
 DM extrapolation coefficients: 
1   1.00000
New DM after history re-use:
<dSpData2D:SpM extrapolated using coords
  <sparsity:sparsity for geom step 4
    nrows_g=36 nrows=36 sparsity=.9336 nnzs=1210, refcount: 9>
  <dData2D:(temp array for extrapolation) n=1210 m=1, refcount: 1>
refcount: 1>
No. of atoms with KB's overlaping orbs in proc 0. Max # of overlaps:       4      30
New grid distribution:   1
           1       1:   45    1:   45    1:   45

InitMesh: MESH =    90 x    90 x    90 =      729000
InitMesh: (bp) =    45 x    45 x    45 =       91125
InitMesh: Mesh cutoff (required, used) =   200.000   223.865 Ry
ExtMesh (bp) on 0 =   117 x   117 x   117 =     1601613
PhiOnMesh: Number of (b)points on node 0 =                91125
PhiOnMesh: nlist on node 0 =               451172

        iscf     Eharris(eV)        E_KS(eV)     FreeEng(eV)     dDmax    Ef(eV) dHmax(eV)
   scf:    1     -900.409730     -900.586403     -900.655718  0.269012 -6.606340  0.188637
   scf:    2     -900.585364     -900.586456     -900.655770  0.059373 -6.756324  0.181219
   scf:    3     -900.587367     -900.587014     -900.656328  0.024644 -6.694941  0.029090
   scf:    4     -900.587063     -900.587061     -900.656376  0.004554 -6.697152  0.021471
   scf:    5     -900.587017     -900.587050     -900.656364  0.004086 -6.704561  0.020083
   scf:    6     -900.587040     -900.587047     -900.656359  0.003306 -6.701024  0.010660
   scf:    7     -900.587068     -900.587070     -900.656385  0.007983 -6.694743  0.010101
   scf:    8     -900.587072     -900.587071     -900.656386  0.003499 -6.698107  0.002663
   scf:    9     -900.587072     -900.587071     -900.656386  0.000884 -6.699021  0.000093
   scf:   10     -900.587071     -900.587071     -900.656386  0.000006 -6.699023  0.000091

SCF Convergence by DM+H criterion
max |DM_out - DM_in|         :     0.0000058899
max |H_out - H_in|      (eV) :     0.0000909088
SCF cycle converged after 10 iterations

Using DM_out to compute the final energy and forces
No. of atoms with KB's overlaping orbs in proc 0. Max # of overlaps:       4      30

siesta: E_KS(eV) =             -900.5871

siesta: Atomic forces (eV/Ang):
----------------------------------------
   Tot    0.000181   -0.000141   -0.000092
----------------------------------------
   Max    1.454176
   Res    0.593649    sqrt( Sum f_i^2 / 3N )
----------------------------------------
   Max    1.454176    constrained

Stress tensor Voigt[x,y,z,yz,xz,xy] (kbar):      -12.35       -0.08       -0.17       -0.09       -0.03       -0.02
(Free)E + p*V (eV/cell)     -898.0331
Target enthalpy (eV/cell)     -900.6564

siesta: Stress tensor (static) (eV/Ang**3):
        -0.001847   -0.000050   -0.000011
        -0.000050    0.000003   -0.000002
        -0.000011   -0.000002    0.000002

siesta: Pressure (static):          0.98374004  kBar

siesta: Stress tensor (total) (eV/Ang**3):
        -0.007711   -0.000011   -0.000016
        -0.000011   -0.000052   -0.000055
        -0.000016   -0.000055   -0.000107

siesta: Pressure (total):          4.20306192  kBar

siesta: Temp_ion =    7825.802 K

                     ====================================
                        Begin MD step =      5
                     ====================================

outcell: Unit cell vectors (Ang):
       10.000000    0.000000    0.000000
        0.000000   10.000000    0.000000
        0.000000    0.000000   10.000000

outcell: Cell vector modules (Ang)   :   10.000000   10.000000   10.000000
outcell: Cell angles (23,13,12) (deg):     90.0000     90.0000     90.0000
outcell: Cell volume (Ang**3)        :   1000.0000
Gamma-point calculation with multiply-connected orbital pairs
Gamma-point calculation with multiply-connected orbital pairs
Folding of H and S implicitly performed
Folding of H and S implicitly performed
<dSpData1D:S at geom step 5
  <sparsity:sparsity for geom step 5
    nrows_g=36 nrows=36 sparsity=.9398 nnzs=1218, refcount: 7>
  <dData1D:(new from dSpData1D) n=1218, refcount: 1>
refcount: 1>
new_DM -- step:     5
Re-using DM from previous geometries...
Number of DMs in history: 1
 DM extrapolation coefficients: 
1   1.00000
New DM after history re-use:
<dSpData2D:SpM extrapolated using coords
  <sparsity:sparsity for geom step 5
    nrows_g=36 nrows=36 sparsity=.9398 nnzs=1218, refcount: 9>
  <dData2D:(temp array for extrapolation) n=1218 m=1, refcount: 1>
refcount: 1>
No. of atoms with KB's overlaping orbs in proc 0. Max # of overlaps:       4      30
New grid distribution:   1
           1       1:   45    1:   45    1:   45

InitMesh: MESH =    90 x    90 x    90 =      729000
InitMesh: (bp) =    45 x    45 x    45 =       91125
InitMesh: Mesh cutoff (required, used) =   200.000   223.865 Ry
ExtMesh (bp) on 0 =   117 x   117 x   117 =     1601613
PhiOnMesh: Number of (b)points on node 0 =                91125
PhiOnMesh: nlist on node 0 =               451189

        iscf     Eharris(eV)        E_KS(eV)     FreeEng(eV)     dDmax    Ef(eV) dHmax(eV)
   scf:    1     -900.413803     -900.579156     -900.648470  0.316177 -6.538705  0.266521
   scf:    2     -900.576602     -900.579000     -900.648313  0.127191 -6.753600  0.264439
   scf:    3     -900.580874     -900.580149     -900.649463  0.053387 -6.663556  0.041612
   scf:    4     -900.580250     -900.580248     -900.649562  0.004146 -6.667415  0.031320
   scf:    5     -900.580122     -900.580208     -900.649521  0.004783 -6.684885  0.042886
   scf:    6     -900.580207     -900.580207     -900.649521  0.000274 -6.685206  0.043658
   scf:    7     -900.580266     -900.580260     -900.649575  0.019303 -6.665729  0.014109
   scf:    8     -900.580264     -900.580262     -900.649577  0.003524 -6.669482  0.007421
   scf:    9     -900.580263     -900.580263     -900.649578  0.001936 -6.671605  0.000132
   scf:   10     -900.580263     -900.580263     -900.649578  0.000015 -6.671608  0.000129

SCF Convergence by DM+H criterion
max |DM_out - DM_in|         :     0.0000149738
max |H_out - H_in|      (eV) :     0.0001290984
SCF cycle converged after 10 iterations

Using DM_out to compute the final energy and forces
No. of atoms with KB's overlaping orbs in proc 0. Max # of overlaps:       4      30

siesta: E_KS(eV) =             -900.5803

siesta: Atomic forces (eV/Ang):
----------------------------------------
   Tot    0.000461   -0.000039    0.000349
----------------------------------------
   Max    1.729392
   Res    0.729427    sqrt( Sum f_i^2 / 3N )
----------------------------------------
   Max    1.729392    constrained

Stress tensor Voigt[x,y,z,yz,xz,xy] (kbar):      -12.17       -0.07       -0.14       -0.06        0.14        0.04
(Free)E + p*V (eV/cell)     -898.0754
Target enthalpy (eV/cell)     -900.6496

siesta: Stress tensor (static) (eV/Ang**3):
        -0.001740    0.000001    0.000105
         0.000001    0.000013    0.000015
         0.000105    0.000015    0.000030

siesta: Pressure (static):          0.90642817  kBar

siesta: Stress tensor (total) (eV/Ang**3):
        -0.007594    0.000024    0.000085
         0.000024   -0.000044   -0.000040
         0.000085   -0.000040   -0.000084

siesta: Pressure (total):          4.12436859  kBar

siesta: Temp_ion =    7808.928 K

                     ====================================
                        Begin MD step =      6
                     ====================================

outcell: Unit cell vectors (Ang):
       10.000000    0.000000    0.000000
        0.000000   10.000000    0.000000
        0.000000    0.000000   10.000000

outcell: Cell vector modules (Ang)   :   10.000000   10.000000   10.000000
outcell: Cell angles (23,13,12) (deg):     90.0000     90.0000     90.0000
outcell: Cell volume (Ang**3)        :   1000.0000
Gamma-point calculation with multiply-connected orbital pairs
Gamma-point calculation with multiply-connected orbital pairs
Folding of H and S implicitly performed
Folding of H and S implicitly performed
<dSpData1D:S at geom step 6
  <sparsity:sparsity for geom step 6
    nrows_g=36 nrows=36 sparsity=.9414 nnzs=1220, refcount: 7>
  <dData1D:(new from dSpData1D) n=1220, refcount: 1>
refcount: 1>
new_DM -- step:     6
Re-using DM from previous geometries...
Number of DMs in history: 1
 DM extrapolation coefficients: 
1   1.00000
New DM after history re-use:
<dSpData2D:SpM extrapolated using coords
  <sparsity:sparsity for geom step 6
    nrows_g=36 nrows=36 sparsity=.9414 nnzs=1220, refcount: 9>
  <dData2D:(temp array for extrapolation) n=1220 m=1, refcount: 1>
refcount: 1>
No. of atoms with KB's overlaping orbs in proc 0. Max # of overlaps:       4      30
New grid distribution:   1
           1       1:   45    1:   45    1:   45

InitMesh: MESH =    90 x    90 x    90 =      729000
InitMesh: (bp) =    45 x    45 x    45 =       91125
InitMesh: Mesh cutoff (required, used) =   200.000   223.865 Ry
ExtMesh (bp) on 0 =   117 x   117 x   117 =     1601613
PhiOnMesh: Number of (b)points on node 0 =                91125
PhiOnMesh: nlist on node 0 =               451176

        iscf     Eharris(eV)        E_KS(eV)     FreeEng(eV)     dDmax    Ef(eV) dHmax(eV)
   scf:    1     -900.474717     -900.570927     -900.640241  0.329923 -6.570930  0.175737
   scf:    2     -900.569229     -900.570663     -900.639973  0.089988 -6.710285  0.194043
   scf:    3     -900.571711     -900.571311     -900.640625  0.039220 -6.649713  0.038701
   scf:    4     -900.571348     -900.571373     -900.640687  0.005408 -6.654432  0.020256
   scf:    5     -900.571287     -900.571360     -900.640672  0.007055 -6.660220  0.019373
   scf:    6     -900.571283     -900.571336     -900.640651  0.009593 -6.673231  0.050143
   scf:    7     -900.571401     -900.571386     -900.640701  0.019536 -6.653595  0.008702
   scf:    8     -900.571388     -900.571387     -900.640702  0.002800 -6.656653  0.002578
   scf:    9     -900.571388     -900.571388     -900.640702  0.000450 -6.657011  0.000122
   scf:   10     -900.571388     -900.571388     -900.640702  0.000015 -6.657014  0.000120

SCF Convergence by DM+H criterion
max |DM_out - DM_in|         :     0.0000148541
max |H_out - H_in|      (eV) :     0.0001195947
SCF cycle converged after 10 iterations

Using DM_out to compute the final energy and forces
No. of atoms with KB's overlaping orbs in proc 0. Max # of overlaps:       4      30

siesta: E_KS(eV) =             -900.5714

siesta: Atomic forces (eV/Ang):
----------------------------------------
   Tot    0.000956   -0.000105    0.000502
----------------------------------------
   Max    1.868635
   Res    0.839071    sqrt( Sum f_i^2 / 3N )
----------------------------------------
   Max    1.868635    constrained

Stress tensor Voigt[x,y,z,yz,xz,xy] (kbar):      -12.04       -0.05       -0.06       -0.02        0.33        0.11
(Free)E + p*V (eV/cell)     -898.1129
Target enthalpy (eV/cell)     -900.6407

siesta: Stress tensor (static) (eV/Ang**3):
        -0.001666    0.000049    0.000215
         0.000049    0.000026    0.000038
         0.000215    0.000038    0.000070

siesta: Pressure (static):          0.83900486  kBar

siesta: Stress tensor (total) (eV/Ang**3):
        -0.007513    0.000068    0.000206
         0.000068   -0.000030   -0.000014
         0.000206   -0.000014   -0.000040

siesta: Pressure (total):          4.05000675  kBar

siesta: Temp_ion =    7788.337 K

                     ====================================
                        Begin MD step =      7
                     ====================================

outcell: Unit cell vectors (Ang):
       10.000000    0.000000    0.000000
        0.000000   10.000000    0.000000
        0.000000    0.000000   10.000000

outcell: Cell vector modules (Ang)   :   10.000000   10.000000   10.000000
outcell: Cell angles (23,13,12) (deg):     90.0000     90.0000     90.0000
outcell: Cell volume (Ang**3)        :   1000.0000
Gamma-point calculation with multiply-connected orbital pairs
Gamma-point calculation with multiply-connected orbital pairs
Folding of H and S implicitly performed
Folding of H and S implicitly performed
<dSpData1D:S at geom step 7
  <sparsity:sparsity for geom step 7
    nrows_g=36 nrows=36 sparsity=.9552 nnzs=1238, refcount: 7>
  <dData1D:(new from dSpData1D) n=1238, refcount: 1>
refcount: 1>
new_DM -- step:     7
Re-using DM from previous geometries...
Number of DMs in history: 1
 DM extrapolation coefficients: 
1   1.00000
New DM after history re-use:
<dSpData2D:SpM extrapolated using coords
  <sparsity:sparsity for geom step 7
    nrows_g=36 nrows=36 sparsity=.9552 nnzs=1238, refcount: 9>
  <dData2D:(temp array for extrapolation) n=1238 m=1, refcount: 1>
refcount: 1>
No. of atoms with KB's overlaping orbs in proc 0. Max # of overlaps:       4      30
New grid distribution:   1
           1       1:   45    1:   45    1:   45

InitMesh: MESH =    90 x    90 x    90 =      729000
InitMesh: (bp) =    45 x    45 x    45 =       91125
InitMesh: Mesh cutoff (required, used) =   200.000   223.865 Ry
ExtMesh (bp) on 0 =   117 x   117 x   117 =     1601613
PhiOnMesh: Number of (b)points on node 0 =                91125
PhiOnMesh: nlist on node 0 =               451137

        iscf     Eharris(eV)        E_KS(eV)     FreeEng(eV)     dDmax    Ef(eV) dHmax(eV)
   scf:    1     -900.582608     -900.576215     -900.645530  0.298561 -6.668236  0.023344
   scf:    2     -900.575633     -900.576040     -900.645340  0.015042 -6.648984  0.023859
   scf:    3     -900.576294     -900.576203     -900.645515  0.007522 -6.657522  0.005570
   scf:    4     -900.576223     -900.576230     -900.645544  0.005379 -6.656792  0.003855
   scf:    5     -900.576230     -900.576230     -900.645545  0.000739 -6.656593  0.002482
   scf:    6     -900.576230     -900.576230     -900.645545  0.000600 -6.656911  0.002198
   scf:    7     -900.576231     -900.576231     -900.645545  0.000458 -6.656505  0.000279
   scf:    8     -900.576231     -900.576231     -900.645545  0.000073 -6.656489  0.000120

SCF Convergence by DM+H criterion
max |DM_out - DM_in|         :     0.0000732334
max |H_out - H_in|      (eV) :     0.0001202312
SCF cycle converged after 8 iterations

Using DM_out to compute the final energy and forces
No. of atoms with KB's overlaping orbs in proc 0. Max # of overlaps:       4      30

siesta: E_KS(eV) =             -900.5762

siesta: Atomic forces (eV/Ang):
----------------------------------------
   Tot    0.000063   -0.000241   -0.000318
----------------------------------------
   Max    1.854291
   Res    0.831812    sqrt( Sum f_i^2 / 3N )
----------------------------------------
   Max    1.854291    constrained

Stress tensor Voigt[x,y,z,yz,xz,xy] (kbar):      -12.10       -0.03       -0.00        0.01        0.42        0.13
(Free)E + p*V (eV/cell)     -898.1221
Target enthalpy (eV/cell)     -900.6455

siesta: Stress tensor (static) (eV/Ang**3):
        -0.001697    0.000053    0.000240
         0.000053    0.000032    0.000051
         0.000240    0.000051    0.000091

siesta: Pressure (static):          0.84052162  kBar

siesta: Stress tensor (total) (eV/Ang**3):
        -0.007551    0.000079    0.000262
         0.000079   -0.000018    0.000009
         0.000262    0.000009   -0.000001

siesta: Pressure (total):          4.04305646  kBar

siesta: Temp_ion =    7800.560 K

                     ====================================
                        Begin MD step =      8
                     ====================================

outcell: Unit cell vectors (Ang):
       10.000000    0.000000    0.000000
        0.000000   10.000000    0.000000
        0.000000    0.000000   10.000000

outcell: Cell vector modules (Ang)   :   10.000000   10.000000   10.000000
outcell: Cell angles (23,13,12) (deg):     90.0000     90.0000     90.0000
outcell: Cell volume (Ang**3)        :   1000.0000
Gamma-point calculation with multiply-connected orbital pairs
Gamma-point calculation with multiply-connected orbital pairs
Folding of H and S implicitly performed
Folding of H and S implicitly performed
<dSpData1D:S at geom step 8
  <sparsity:sparsity for geom step 8
    nrows_g=36 nrows=36 sparsity=.9738 nnzs=1262, refcount: 7>
  <dData1D:(new from dSpData1D) n=1262, refcount: 1>
refcount: 1>
new_DM -- step:     8
Re-using DM from previous geometries...
Number of DMs in history: 1
 DM extrapolation coefficients: 
1   1.00000
New DM after history re-use:
<dSpData2D:SpM extrapolated using coords
  <sparsity:sparsity for geom step 8
    nrows_g=36 nrows=36 sparsity=.9738 nnzs=1262, refcount: 9>
  <dData2D:(temp array for extrapolation) n=1262 m=1, refcount: 1>
refcount: 1>
No. of atoms with KB's overlaping orbs in proc 0. Max # of overlaps:       4      34
New grid distribution:   1
           1       1:   45    1:   45    1:   45

InitMesh: MESH =    90 x    90 x    90 =      729000
InitMesh: (bp) =    45 x    45 x    45 =       91125
InitMesh: Mesh cutoff (required, used) =   200.000   223.865 Ry
ExtMesh (bp) on 0 =   117 x   117 x   117 =     1601613
PhiOnMesh: Number of (b)points on node 0 =                91125
PhiOnMesh: nlist on node 0 =               451140

        iscf     Eharris(eV)        E_KS(eV)     FreeEng(eV)     dDmax    Ef(eV) dHmax(eV)
   scf:    1     -900.696693     -900.593033     -900.662347  0.282699 -6.775971  0.218268
   scf:    2     -900.590143     -900.592549     -900.661857  0.120666 -6.603187  0.246946
   scf:    3     -900.594289     -900.593630     -900.662944  0.053874 -6.679449  0.051097
   scf:    4     -900.593679     -900.593732     -900.663045  0.006787 -6.671441  0.024210
   scf:    5     -900.593757     -900.593754     -900.663069  0.003401 -6.674200  0.024362
   scf:    6     -900.593667     -900.593719     -900.663033  0.009452 -6.655315  0.044692
   scf:    7     -900.593765     -900.593758     -900.663072  0.017585 -6.673834  0.010051
   scf:    8     -900.593759     -900.593758     -900.663073  0.002389 -6.671209  0.005079
   scf:    9     -900.593759     -900.593759     -900.663074  0.001349 -6.669870  0.000145
   scf:   10     -900.593759     -900.593759     -900.663074  0.000030 -6.669861  0.000141

SCF Convergence by DM+H criterion
max |DM_out - DM_in|         :     0.0000304288
max |H_out - H_in|      (eV) :     0.0001414478
SCF cycle converged after 10 iterations

Using DM_out to compute the final energy and forces
No. of atoms with KB's overlaping orbs in proc 0. Max # of overlaps:       4      34

siesta: E_KS(eV) =             -900.5938

siesta: Atomic forces (eV/Ang):
----------------------------------------
   Tot   -0.006152    0.000221    0.000266
----------------------------------------
   Max    1.689471
   Res    0.708917    sqrt( Sum f_i^2 / 3N )
----------------------------------------
   Max    1.689471    constrained

Stress tensor Voigt[x,y,z,yz,xz,xy] (kbar):      -12.30       -0.04       -0.01        0.01        0.32        0.04
(Free)E + p*V (eV/cell)     -898.0938
Target enthalpy (eV/cell)     -900.6631

siesta: Stress tensor (static) (eV/Ang**3):
        -0.001788   -0.000007    0.000146
        -0.000007    0.000021    0.000035
         0.000146    0.000035    0.000064

siesta: Pressure (static):          0.90890300  kBar

siesta: Stress tensor (total) (eV/Ang**3):
        -0.007680    0.000024    0.000197
         0.000024   -0.000022    0.000006
         0.000197    0.000006   -0.000006

siesta: Pressure (total):          4.11646401  kBar

siesta: Temp_ion =    7844.028 K

                     ====================================
                        Begin MD step =      9
                     ====================================

outcell: Unit cell vectors (Ang):
       10.000000    0.000000    0.000000
        0.000000   10.000000    0.000000
        0.000000    0.000000   10.000000

outcell: Cell vector modules (Ang)   :   10.000000   10.000000   10.000000
outcell: Cell angles (23,13,12) (deg):     90.0000     90.0000     90.0000
outcell: Cell volume (Ang**3)        :   1000.0000
Gamma-point calculation with multiply-connected orbital pairs
Gamma-point calculation with multiply-connected orbital pairs
Folding of H and S implicitly performed
Folding of H and S implicitly performed
<dSpData1D:S at geom step 9
  <sparsity:sparsity for geom step 9
    nrows_g=36 nrows=36 sparsity=.9784 nnzs=1268, refcount: 7>
  <dData1D:(new from dSpData1D) n=1268, refcount: 1>
refcount: 1>
new_DM -- step:     9
Re-using DM from previous geometries...
Number of DMs in history: 1
 DM extrapolation coefficients: 
1   1.00000
New DM after history re-use:
<dSpData2D:SpM extrapolated using coords
  <sparsity:sparsity for geom step 9
    nrows_g=36 nrows=36 sparsity=.9784 nnzs=1268, refcount: 9>
  <dData2D:(temp array for extrapolation) n=1268 m=1, refcount: 1>
refcount: 1>
No. of atoms with KB's overlaping orbs in proc 0. Max # of overlaps:       4      34
New grid distribution:   1
           1       1:   45    1:   45    1:   45

InitMesh: MESH =    90 x    90 x    90 =      729000
InitMesh: (bp) =    45 x    45 x    45 =       91125
InitMesh: Mesh cutoff (required, used) =   200.000   223.865 Ry
ExtMesh (bp) on 0 =   117 x   117 x   117 =     1601613
PhiOnMesh: Number of (b)points on node 0 =                91125
PhiOnMesh: nlist on node 0 =               451116

        iscf     Eharris(eV)        E_KS(eV)     FreeEng(eV)     dDmax    Ef(eV) dHmax(eV)
   scf:    1     -900.766988     -900.605581     -900.674896  0.252602 -6.839740  0.302711
   scf:    2     -900.599050     -900.604356     -900.673664  0.157682 -6.604734  0.361023
   scf:    3     -900.608133     -900.606717     -900.676031  0.072529 -6.711391  0.081869
   scf:    4     -900.606943     -900.606972     -900.676286  0.010463 -6.697488  0.031428
   scf:    5     -900.606948     -900.606961     -900.676274  0.000973 -6.696269  0.031093
   scf:    6     -900.606864     -900.606937     -900.676252  0.005913 -6.678800  0.057631
   scf:    7     -900.607010     -900.607002     -900.676317  0.022632 -6.701961  0.015268
   scf:    8     -900.607004     -900.607003     -900.676318  0.003076 -6.698727  0.010164
   scf:    9     -900.607006     -900.607005     -900.676320  0.002824 -6.696159  0.000204
   scf:   10     -900.607005     -900.607005     -900.676320  0.000017 -6.696157  0.000199

SCF Convergence by DM+H criterion
max |DM_out - DM_in|         :     0.0000171240
max |H_out - H_in|      (eV) :     0.0001987694
SCF cycle converged after 10 iterations

Using DM_out to compute the final energy and forces
No. of atoms with KB's overlaping orbs in proc 0. Max # of overlaps:       4      34

siesta: E_KS(eV) =             -900.6070

siesta: Atomic forces (eV/Ang):
----------------------------------------
   Tot    0.010594    0.000400   -0.000267
----------------------------------------
   Max    1.393696
   Res    0.569003    sqrt( Sum f_i^2 / 3N )
----------------------------------------
   Max    1.393696    constrained

Stress tensor Voigt[x,y,z,yz,xz,xy] (kbar):      -12.48       -0.07       -0.12       -0.05        0.06       -0.12
(Free)E + p*V (eV/cell)     -898.0404
Target enthalpy (eV/cell)     -900.6763

siesta: Stress tensor (static) (eV/Ang**3):
        -0.001843   -0.000101   -0.000029
        -0.000101   -0.000007   -0.000013
        -0.000029   -0.000013   -0.000018

siesta: Pressure (static):          0.99781875  kBar

siesta: Stress tensor (total) (eV/Ang**3):
        -0.007790   -0.000073    0.000038
        -0.000073   -0.000046   -0.000032
         0.000038   -0.000032   -0.000072

siesta: Pressure (total):          4.22325371  kBar

siesta: Temp_ion =    7876.764 K

                     ====================================
                        Begin MD step =     10
                     ====================================

outcell: Unit cell vectors (Ang):
       10.000000    0.000000    0.000000
        0.000000   10.000000    0.000000
        0.000000    0.000000   10.000000

outcell: Cell vector modules (Ang)   :   10.000000   10.000000   10.000000
outcell: Cell angles (23,13,12) (deg):     90.0000     90.0000     90.0000
outcell: Cell volume (Ang**3)        :   1000.0000
Gamma-point calculation with multiply-connected orbital pairs
Gamma-point calculation with multiply-connected orbital pairs
Folding of H and S implicitly performed
Folding of H and S implicitly performed
<dSpData1D:S at geom step 10
  <sparsity:sparsity for geom step 10
    nrows_g=36 nrows=36 sparsity=.9784 nnzs=1268, refcount: 7>
  <dData1D:(new from dSpData1D) n=1268, refcount: 1>
refcount: 1>
new_DM -- step:    10
Re-using DM from previous geometries...
Number of DMs in history: 1
 DM extrapolation coefficients: 
1   1.00000
New DM after history re-use:
<dSpData2D:SpM extrapolated using coords
  <sparsity:sparsity for geom step 10
    nrows_g=36 nrows=36 sparsity=.9784 nnzs=1268, refcount: 9>
  <dData2D:(temp array for extrapolation) n=1268 m=1, refcount: 1>
refcount: 1>
No. of atoms with KB's overlaping orbs in proc 0. Max # of overlaps:       4      34
New grid distribution:   1
           1       1:   45    1:   45    1:   45

InitMesh: MESH =    90 x    90 x    90 =      729000
InitMesh: (bp) =    45 x    45 x    45 =       91125
InitMesh: Mesh cutoff (required, used) =   200.000   223.865 Ry
ExtMesh (bp) on 0 =   117 x   117 x   117 =     1601613
PhiOnMesh: Number of (b)points on node 0 =                91125
PhiOnMesh: nlist on node 0 =               451210

        iscf     Eharris(eV)        E_KS(eV)     FreeEng(eV)     dDmax    Ef(eV) dHmax(eV)
   scf:    1     -900.774769     -900.610582     -900.679896  0.202809 -6.833867  0.213180
   scf:    2     -900.606737     -900.609872     -900.679130  0.088217 -6.666188  0.222233
   scf:    3     -900.612097     -900.611264     -900.680570  0.038281 -6.737807  0.034997
   scf:    4     -900.611021     -900.611362     -900.680668  0.018007 -6.733369  0.022739
   scf:    5     -900.611439     -900.611451     -900.680766  0.009170 -6.735255  0.021817
   scf:    6     -900.611371     -900.611425     -900.680738  0.003989 -6.723831  0.030035
   scf:    7     -900.611450     -900.611457     -900.680771  0.013933 -6.736105  0.008366
   scf:    8     -900.611459     -900.611458     -900.680773  0.002712 -6.733684  0.003357
   scf:    9     -900.611459     -900.611459     -900.680774  0.001204 -6.732615  0.000228
   scf:   10     -900.611459     -900.611459     -900.680774  0.000021 -6.732613  0.000224

SCF Convergence by DM+H criterion
max |DM_out - DM_in|         :     0.0000212103
max |H_out - H_in|      (eV) :     0.0002235379
SCF cycle converged after 10 iterations

Using DM_out to compute the final energy and forces
No. of atoms with KB's overlaping orbs in proc 0. Max # of overlaps:       4      34

siesta: E_KS(eV) =             -900.6115

siesta: Atomic forces (eV/Ang):
----------------------------------------
   Tot    0.005257    0.001064    0.000278
----------------------------------------
   Max    0.988246
   Res    0.476532    sqrt( Sum f_i^2 / 3N )
----------------------------------------
   Max    0.988246    constrained

Stress tensor Voigt[x,y,z,yz,xz,xy] (kbar):      -12.11       -0.12       -0.25       -0.13       -0.16       -0.23
(Free)E + p*V (eV/cell)     -898.0851
Target enthalpy (eV/cell)     -900.6808

siesta: Stress tensor (static) (eV/Ang**3):
        -0.001579   -0.000166   -0.000169
        -0.000166   -0.000038   -0.000065
        -0.000169   -0.000065   -0.000106

siesta: Pressure (static):          0.91986777  kBar

siesta: Stress tensor (total) (eV/Ang**3):
        -0.007555   -0.000144   -0.000097
        -0.000144   -0.000076   -0.000082
        -0.000097   -0.000082   -0.000156

siesta: Pressure (total):          4.15876361  kBar

siesta: Temp_ion =    7888.344 K

                     ====================================
                        Begin MD step =     11
                     ====================================

outcell: Unit cell vectors (Ang):
       10.000000    0.000000    0.000000
        0.000000   10.000000    0.000000
        0.000000    0.000000   10.000000

outcell: Cell vector modules (Ang)   :   10.000000   10.000000   10.000000
outcell: Cell angles (23,13,12) (deg):     90.0000     90.0000     90.0000
outcell: Cell volume (Ang**3)        :   1000.0000
Gamma-point calculation with multiply-connected orbital pairs
Gamma-point calculation with multiply-connected orbital pairs
Folding of H and S implicitly performed
Folding of H and S implicitly performed
<dSpData1D:S at geom step 11
  <sparsity:sparsity for geom step 11
    nrows_g=36 nrows=36 sparsity=.9784 nnzs=1268, refcount: 7>
  <dData1D:(new from dSpData1D) n=1268, refcount: 1>
refcount: 1>
new_DM -- step:    11
Re-using DM from previous geometries...
Number of DMs in history: 1
 DM extrapolation coefficients: 
1   1.00000
New DM after history re-use:
<dSpData2D:SpM extrapolated using coords
  <sparsity:sparsity for geom step 11
    nrows_g=36 nrows=36 sparsity=.9784 nnzs=1268, refcount: 9>
  <dData2D:(temp array for extrapolation) n=1268 m=1, refcount: 1>
refcount: 1>
No. of atoms with KB's overlaping orbs in proc 0. Max # of overlaps:       4      34
New grid distribution:   1
           1       1:   45    1:   45    1:   45

InitMesh: MESH =    90 x    90 x    90 =      729000
InitMesh: (bp) =    45 x    45 x    45 =       91125
InitMesh: Mesh cutoff (required, used) =   200.000   223.865 Ry
ExtMesh (bp) on 0 =   117 x   117 x   117 =     1601613
PhiOnMesh: Number of (b)points on node 0 =                91125
PhiOnMesh: nlist on node 0 =               451189

        iscf     Eharris(eV)        E_KS(eV)     FreeEng(eV)     dDmax    Ef(eV) dHmax(eV)
   scf:    1     -900.734148     -900.615384     -900.684698  0.105634 -6.779655  0.066053
   scf:    2     -900.611678     -900.614343     -900.683586  0.066821 -6.772800  0.105507
   scf:    3     -900.615983     -900.615515     -900.684825  0.039667 -6.776904  0.030089
   scf:    4     -900.615213     -900.615536     -900.684840  0.019535 -6.775671  0.012280
   scf:    5     -900.615630     -900.615642     -900.684956  0.007947 -6.775663  0.003057
   scf:    6     -900.615642     -900.615642     -900.684956  0.000026 -6.775660  0.003074
   scf:    7     -900.615643     -900.615643     -900.684957  0.001300 -6.776878  0.000983
   scf:    8     -900.615643     -900.615643     -900.684957  0.000273 -6.776718  0.000486

SCF Convergence by DM+H criterion
max |DM_out - DM_in|         :     0.0002726486
max |H_out - H_in|      (eV) :     0.0004858694
SCF cycle converged after 8 iterations

Using DM_out to compute the final energy and forces
No. of atoms with KB's overlaping orbs in proc 0. Max # of overlaps:       4      34

siesta: E_KS(eV) =             -900.6156

siesta: Atomic forces (eV/Ang):
----------------------------------------
   Tot    0.035946   -0.000430    0.000149
----------------------------------------
   Max    0.536097
   Res    0.292347    sqrt( Sum f_i^2 / 3N )
----------------------------------------
   Max    0.536097    constrained

Stress tensor Voigt[x,y,z,yz,xz,xy] (kbar):      -11.39       -0.13       -0.27       -0.14       -0.11       -0.17
(Free)E + p*V (eV/cell)     -898.2338
Target enthalpy (eV/cell)     -900.6850

siesta: Stress tensor (static) (eV/Ang**3):
        -0.001140   -0.000120   -0.000142
        -0.000121   -0.000036   -0.000063
        -0.000141   -0.000063   -0.000104

siesta: Pressure (static):          0.68354263  kBar

siesta: Stress tensor (total) (eV/Ang**3):
        -0.007109   -0.000107   -0.000071
        -0.000107   -0.000078   -0.000087
        -0.000071   -0.000087   -0.000166

siesta: Pressure (total):          3.92720001  kBar

siesta: Temp_ion =    7890.894 K

                     ====================================
                        Begin MD step =     12
                     ====================================

outcell: Unit cell vectors (Ang):
       10.000000    0.000000    0.000000
        0.000000   10.000000    0.000000
        0.000000    0.000000   10.000000

outcell: Cell vector modules (Ang)   :   10.000000   10.000000   10.000000
outcell: Cell angles (23,13,12) (deg):     90.0000     90.0000     90.0000
outcell: Cell volume (Ang**3)        :   1000.0000
Gamma-point calculation with multiply-connected orbital pairs
Gamma-point calculation with multiply-connected orbital pairs
Folding of H and S implicitly performed
Folding of H and S implicitly performed
<dSpData1D:S at geom step 12
  <sparsity:sparsity for geom step 12
    nrows_g=36 nrows=36 sparsity=.9830 nnzs=1274, refcount: 7>
  <dData1D:(new from dSpData1D) n=1274, refcount: 1>
refcount: 1>
new_DM -- step:    12
Re-using DM from previous geometries...
Number of DMs in history: 1
 DM extrapolation coefficients: 
1   1.00000
New DM after history re-use:
<dSpData2D:SpM extrapolated using coords
  <sparsity:sparsity for geom step 12
    nrows_g=36 nrows=36 sparsity=.9830 nnzs=1274, refcount: 9>
  <dData2D:(temp array for extrapolation) n=1274 m=1, refcount: 1>
refcount: 1>
Note: For starting DM, Qtot, Tr[D*S] =         14.00000000         13.98491416
No. of atoms with KB's overlaping orbs in proc 0. Max # of overlaps:       4      34
New grid distribution:   1
           1       1:   45    1:   45    1:   45

InitMesh: MESH =    90 x    90 x    90 =      729000
InitMesh: (bp) =    45 x    45 x    45 =       91125
InitMesh: Mesh cutoff (required, used) =   200.000   223.865 Ry
ExtMesh (bp) on 0 =   117 x   117 x   117 =     1601613
PhiOnMesh: Number of (b)points on node 0 =                91125
PhiOnMesh: nlist on node 0 =               451264

        iscf     Eharris(eV)        E_KS(eV)     FreeEng(eV)     dDmax    Ef(eV) dHmax(eV)
   scf:    1     -900.672337     -900.609798     -900.679109  0.229469 -6.741909  0.204931
   scf:    2     -900.581359     -900.601302     -900.670403  0.189868 -6.876694  0.461777
   scf:    3     -900.613278     -900.610286     -900.679595  0.129993 -6.784209  0.119784
   scf:    4     -900.609594     -900.610365     -900.679649  0.048526 -6.820051  0.018685
   scf:    5     -900.610649     -900.610664     -900.679978  0.012430 -6.821483  0.015971
   scf:    6     -900.610662     -900.610666     -900.679981  0.001121 -6.821872  0.014421
   scf:    7     -900.610678     -900.610674     -900.679988  0.006253 -6.823441  0.002352
   scf:    8     -900.610674     -900.610674     -900.679988  0.000329 -6.823247  0.002155
   scf:    9     -900.610673     -900.610674     -900.679988  0.000823 -6.823628  0.000373
   scf:   10     -900.610674     -900.610674     -900.679988  0.000098 -6.823661  0.000312

SCF Convergence by DM+H criterion
max |DM_out - DM_in|         :     0.0000981142
max |H_out - H_in|      (eV) :     0.0003122307
SCF cycle converged after 10 iterations

Using DM_out to compute the final energy and forces
No. of atoms with KB's overlaping orbs in proc 0. Max # of overlaps:       4      34

siesta: E_KS(eV) =             -900.6107

siesta: Atomic forces (eV/Ang):
----------------------------------------
   Tot   -0.025406   -0.000448    0.000268
----------------------------------------
   Max    0.096649
   Res    0.042913    sqrt( Sum f_i^2 / 3N )
----------------------------------------
   Max    0.096649    constrained

Stress tensor Voigt[x,y,z,yz,xz,xy] (kbar):      -10.05       -0.07       -0.10       -0.04        0.15        0.03
(Free)E + p*V (eV/cell)     -898.5543
Target enthalpy (eV/cell)     -900.6800

siesta: Stress tensor (static) (eV/Ang**3):
        -0.000330    0.000011    0.000028
         0.000011    0.000007    0.000009
         0.000028    0.000009    0.000022

siesta: Pressure (static):          0.16109311  kBar

siesta: Stress tensor (total) (eV/Ang**3):
        -0.006273    0.000016    0.000094
         0.000016   -0.000043   -0.000026
         0.000094   -0.000026   -0.000061

siesta: Pressure (total):          3.40579909  kBar

siesta: Temp_ion =    7870.936 K

                     ====================================
                        Begin MD step =     13
                     ====================================

outcell: Unit cell vectors (Ang):
       10.000000    0.000000    0.000000
        0.000000   10.000000    0.000000
        0.000000    0.000000   10.000000

outcell: Cell vector modules (Ang)   :   10.000000   10.000000   10.000000
outcell: Cell angles (23,13,12) (deg):     90.0000     90.0000     90.0000
outcell: Cell volume (Ang**3)        :   1000.0000
Gamma-point calculation with multiply-connected orbital pairs
Gamma-point calculation with multiply-connected orbital pairs
Folding of H and S implicitly performed
Folding of H and S implicitly performed
<dSpData1D:S at geom step 13
  <sparsity:sparsity for geom step 13
    nrows_g=36 nrows=36 sparsity=.9877 nnzs=1280, refcount: 7>
  <dData1D:(new from dSpData1D) n=1280, refcount: 1>
refcount: 1>
new_DM -- step:    13
Re-using DM from previous geometries...
Number of DMs in history: 1
 DM extrapolation coefficients: 
1   1.00000
New DM after history re-use:
<dSpData2D:SpM extrapolated using coords
  <sparsity:sparsity for geom step 13
    nrows_g=36 nrows=36 sparsity=.9877 nnzs=1280, refcount: 9>
  <dData2D:(temp array for extrapolation) n=1280 m=1, refcount: 1>
refcount: 1>
Note: For starting DM, Qtot, Tr[D*S] =         14.00000000         13.98296819
No. of atoms with KB's overlaping orbs in proc 0. Max # of overlaps:       4      34
New grid distribution:   1
           1       1:   45    1:   45    1:   45

InitMesh: MESH =    90 x    90 x    90 =      729000
InitMesh: (bp) =    45 x    45 x    45 =       91125
InitMesh: Mesh cutoff (required, used) =   200.000   223.865 Ry
ExtMesh (bp) on 0 =   117 x   117 x   117 =     1601613
PhiOnMesh: Number of (b)points on node 0 =                91125
PhiOnMesh: nlist on node 0 =               451157

        iscf     Eharris(eV)        E_KS(eV)     FreeEng(eV)     dDmax    Ef(eV) dHmax(eV)
   scf:    1     -900.608873     -900.578569     -900.647875  0.629305 -6.769895  0.241249
   scf:    2     -900.534638     -900.565357     -900.634023  0.213367 -6.937696  0.513274
   scf:    3     -900.584104     -900.578946     -900.648234  0.136238 -6.830201  0.143258
   scf:    4     -900.576931     -900.579056     -900.648303  0.043114 -6.865662  0.031955
   scf:    5     -900.579609     -900.579715     -900.649029  0.020650 -6.866065  0.023015
   scf:    6     -900.579722     -900.579721     -900.649035  0.003147 -6.868467  0.020382
   scf:    7     -900.579736     -900.579730     -900.649045  0.006688 -6.870342  0.002506
   scf:    8     -900.579731     -900.579731     -900.649045  0.000525 -6.869929  0.002259
   scf:    9     -900.579730     -900.579731     -900.649044  0.000640 -6.870318  0.000746
   scf:   10     -900.579731     -900.579731     -900.649045  0.000153 -6.870356  0.000481

SCF Convergence by DM+H criterion
max |DM_out - DM_in|         :     0.0001527200
max |H_out - H_in|      (eV) :     0.0004813786
SCF cycle converged after 10 iterations

Using DM_out to compute the final energy and forces
No. of atoms with KB's overlaping orbs in proc 0. Max # of overlaps:       4      34

siesta: E_KS(eV) =             -900.5797

siesta: Atomic forces (eV/Ang):
----------------------------------------
   Tot   -0.006902    0.000180    0.000443
----------------------------------------
   Max    0.575459
   Res    0.323532    sqrt( Sum f_i^2 / 3N )
----------------------------------------
   Max    0.575459    constrained

Stress tensor Voigt[x,y,z,yz,xz,xy] (kbar):       -9.23        0.02        0.17        0.11        0.45        0.26
(Free)E + p*V (eV/cell)     -898.7685
Target enthalpy (eV/cell)     -900.6490

siesta: Stress tensor (static) (eV/Ang**3):
         0.000151    0.000161    0.000220
         0.000161    0.000067    0.000111
         0.000220    0.000111    0.000200

siesta: Pressure (static):         -0.22348145  kBar

siesta: Stress tensor (total) (eV/Ang**3):
        -0.005764    0.000163    0.000282
         0.000163    0.000014    0.000071
         0.000282    0.000071    0.000108

siesta: Pressure (total):          3.01301810  kBar

siesta: Temp_ion =    7797.945 K

                     ====================================
                        Begin MD step =     14
                     ====================================

outcell: Unit cell vectors (Ang):
       10.000000    0.000000    0.000000
        0.000000   10.000000    0.000000
        0.000000    0.000000   10.000000

outcell: Cell vector modules (Ang)   :   10.000000   10.000000   10.000000
outcell: Cell angles (23,13,12) (deg):     90.0000     90.0000     90.0000
outcell: Cell volume (Ang**3)        :   1000.0000
Gamma-point calculation with multiply-connected orbital pairs
Gamma-point calculation with multiply-connected orbital pairs
Folding of H and S implicitly performed
Folding of H and S implicitly performed
<dSpData1D:S at geom step 14
  <sparsity:sparsity for geom step 14
    nrows_g=36 nrows=36 sparsity=.9892 nnzs=1282, refcount: 7>
  <dData1D:(new from dSpData1D) n=1282, refcount: 1>
refcount: 1>
new_DM -- step:    14
Re-using DM from previous geometries...
Number of DMs in history: 1
 DM extrapolation coefficients: 
1   1.00000
New DM after history re-use:
<dSpData2D:SpM extrapolated using coords
  <sparsity:sparsity for geom step 14
    nrows_g=36 nrows=36 sparsity=.9892 nnzs=1282, refcount: 9>
  <dData2D:(temp array for extrapolation) n=1282 m=1, refcount: 1>
refcount: 1>
No. of atoms with KB's overlaping orbs in proc 0. Max # of overlaps:       4      34
New grid distribution:   1
           1       1:   45    1:   45    1:   45

InitMesh: MESH =    90 x    90 x    90 =      729000
InitMesh: (bp) =    45 x    45 x    45 =       91125
InitMesh: Mesh cutoff (required, used) =   200.000   223.865 Ry
ExtMesh (bp) on 0 =   117 x   117 x   117 =     1601613
PhiOnMesh: Number of (b)points on node 0 =                91125
PhiOnMesh: nlist on node 0 =               451190

        iscf     Eharris(eV)        E_KS(eV)     FreeEng(eV)     dDmax    Ef(eV) dHmax(eV)
   scf:    1     -900.551768     -900.526792     -900.596080  0.870236 -6.861078  0.139480
   scf:    2     -900.444598     -900.501298     -900.568688  0.133479 -6.948603  0.396589
   scf:    3     -900.533930     -900.526713     -900.595989  0.095122 -6.886329  0.089519
   scf:    4     -900.524055     -900.526768     -900.595997  0.038111 -6.909220  0.042461
   scf:    5     -900.527182     -900.527493     -900.596807  0.022538 -6.904007  0.029447
   scf:    6     -900.527210     -900.527455     -900.596754  0.022375 -6.918835  0.020353
   scf:    7     -900.527529     -900.527544     -900.596857  0.007176 -6.913550  0.002137
   scf:    8     -900.527544     -900.527544     -900.596857  0.000204 -6.913749  0.002185
   scf:    9     -900.527544     -900.527545     -900.596857  0.000703 -6.914024  0.001445
   scf:   10     -900.527545     -900.527545     -900.596857  0.000131 -6.914050  0.001157
   scf:   11     -900.527544     -900.527545     -900.596858  0.000474 -6.914219  0.000207
   scf:   12     -900.527545     -900.527545     -900.596858  0.000013 -6.914219  0.000182

SCF Convergence by DM+H criterion
max |DM_out - DM_in|         :     0.0000125294
max |H_out - H_in|      (eV) :     0.0001815451
SCF cycle converged after 12 iterations

Using DM_out to compute the final energy and forces
No. of atoms with KB's overlaping orbs in proc 0. Max # of overlaps:       4      34

siesta: E_KS(eV) =             -900.5275

siesta: Atomic forces (eV/Ang):
----------------------------------------
   Tot    0.017423   -0.000424   -0.000170
----------------------------------------
   Max    0.987400
   Res    0.513213    sqrt( Sum f_i^2 / 3N )
----------------------------------------
   Max    0.987400    constrained

Stress tensor Voigt[x,y,z,yz,xz,xy] (kbar):       -9.02        0.09        0.39        0.23        0.57        0.40
(Free)E + p*V (eV/cell)     -898.8199
Target enthalpy (eV/cell)     -900.5969

siesta: Stress tensor (static) (eV/Ang**3):
         0.000250    0.000244    0.000293
         0.000244    0.000106    0.000177
         0.000293    0.000177    0.000317

siesta: Pressure (static):         -0.35939425  kBar

siesta: Stress tensor (total) (eV/Ang**3):
        -0.005632    0.000248    0.000359
         0.000248    0.000059    0.000146
         0.000359    0.000146    0.000242

siesta: Pressure (total):          2.84709135  kBar

siesta: Temp_ion =    7658.123 K

                     ====================================
                        Begin MD step =     15
                     ====================================

outcell: Unit cell vectors (Ang):
       10.000000    0.000000    0.000000
        0.000000   10.000000    0.000000
        0.000000    0.000000   10.000000

outcell: Cell vector modules (Ang)   :   10.000000   10.000000   10.000000
outcell: Cell angles (23,13,12) (deg):     90.0000     90.0000     90.0000
outcell: Cell volume (Ang**3)        :   1000.0000
Gamma-point calculation with multiply-connected orbital pairs
Gamma-point calculation with multiply-connected orbital pairs
Folding of H and S implicitly performed
Folding of H and S implicitly performed
<dSpData1D:S at geom step 15
  <sparsity:sparsity for geom step 15
    nrows_g=36 nrows=36 sparsity=.9938 nnzs=1288, refcount: 7>
  <dData1D:(new from dSpData1D) n=1288, refcount: 1>
refcount: 1>
new_DM -- step:    15
Re-using DM from previous geometries...
Number of DMs in history: 1
 DM extrapolation coefficients: 
1   1.00000
New DM after history re-use:
<dSpData2D:SpM extrapolated using coords
  <sparsity:sparsity for geom step 15
    nrows_g=36 nrows=36 sparsity=.9938 nnzs=1288, refcount: 9>
  <dData2D:(temp array for extrapolation) n=1288 m=1, refcount: 1>
refcount: 1>
No. of atoms with KB's overlaping orbs in proc 0. Max # of overlaps:       4      35
New grid distribution:   1
           1       1:   45    1:   45    1:   45

InitMesh: MESH =    90 x    90 x    90 =      729000
InitMesh: (bp) =    45 x    45 x    45 =       91125
InitMesh: Mesh cutoff (required, used) =   200.000   223.865 Ry
ExtMesh (bp) on 0 =   117 x   117 x   117 =     1601613
PhiOnMesh: Number of (b)points on node 0 =                91125
PhiOnMesh: nlist on node 0 =               451188

        iscf     Eharris(eV)        E_KS(eV)     FreeEng(eV)     dDmax    Ef(eV) dHmax(eV)
   scf:    1     -900.463815     -900.446248     -900.515469  0.978472 -6.965842  0.112449
   scf:    2     -900.187215     -900.365375     -900.428265  0.222980 -6.936293  0.483228
[...]
   scf:    5     -900.572287     -900.572676     -900.641889  0.015446 -6.747451  0.094714
   scf:    6     -900.573578     -900.573496     -900.642806  0.037083 -6.694541  0.155245
   scf:    7     -900.574147     -900.574070     -900.643384  0.090644 -6.782687  0.046814
   scf:    8     -900.574058     -900.574076     -900.643388  0.011439 -6.770333  0.025084
   scf:    9     -900.574116     -900.574113     -900.643428  0.004960 -6.760310  0.000541
   scf:   10     -900.574114     -900.574114     -900.643428  0.000205 -6.760418  0.000424

SCF Convergence by DM+H criterion
max |DM_out - DM_in|         :     0.0002054874
max |H_out - H_in|      (eV) :     0.0004241368
SCF cycle converged after 10 iterations

Using DM_out to compute the final energy and forces
No. of atoms with KB's overlaping orbs in proc 0. Max # of overlaps:       4      26

siesta: E_KS(eV) =             -900.5741

siesta: Atomic forces (eV/Ang):
----------------------------------------
   Tot   -0.003066   -0.001387   -0.000841
----------------------------------------
   Max    0.856847
   Res    0.500387    sqrt( Sum f_i^2 / 3N )
----------------------------------------
   Max    0.856847    constrained

Stress tensor Voigt[x,y,z,yz,xz,xy] (kbar):       -7.14       -3.64       -1.38        0.53       -1.16        4.12
(Free)E + p*V (eV/cell)     -898.1139
Target enthalpy (eV/cell)     -900.6434

siesta: Stress tensor (static) (eV/Ang**3):
        -0.000861    0.000334    0.000141
         0.000334   -0.000204   -0.000248
         0.000141   -0.000248   -0.000504

siesta: Pressure (static):          0.83776767  kBar

siesta: Stress tensor (total) (eV/Ang**3):
        -0.004457    0.002572   -0.000722
         0.002572   -0.002272    0.000329
        -0.000722    0.000329   -0.000860

siesta: Pressure (total):          4.05278665  kBar

siesta: Temp_ion =    7802.087 K

                     ====================================
                        Begin MD step =    198
                     ====================================

outcell: Unit cell vectors (Ang):
       10.000000    0.000000    0.000000
        0.000000   10.000000    0.000000
        0.000000    0.000000   10.000000

outcell: Cell vector modules (Ang)   :   10.000000   10.000000   10.000000
outcell: Cell angles (23,13,12) (deg):     90.0000     90.0000     90.0000
outcell: Cell volume (Ang**3)        :   1000.0000
<dSpData1D:S at geom step 198
  <sparsity:sparsity for geom step 198
    nrows_g=36 nrows=36 sparsity=.5988 nnzs=776, refcount: 7>
  <dData1D:(new from dSpData1D) n=776, refcount: 1>
refcount: 1>
new_DM -- step:   198
Re-using DM from previous geometries...
Number of DMs in history: 1
 DM extrapolation coefficients: 
1   1.00000
New DM after history re-use:
<dSpData2D:SpM extrapolated using coords
  <sparsity:sparsity for geom step 198
    nrows_g=36 nrows=36 sparsity=.5988 nnzs=776, refcount: 9>
  <dData2D:(temp array for extrapolation) n=776 m=1, refcount: 1>
refcount: 1>
Note: For starting DM, Qtot, Tr[D*S] =         14.00000000         14.02526786
No. of atoms with KB's overlaping orbs in proc 0. Max # of overlaps:       4      26
New grid distribution:   1
           1       1:   45    1:   45    1:   45

InitMesh: MESH =    90 x    90 x    90 =      729000
InitMesh: (bp) =    45 x    45 x    45 =       91125
InitMesh: Mesh cutoff (required, used) =   200.000   223.865 Ry
ExtMesh (bp) on 0 =   117 x   117 x   117 =     1601613
PhiOnMesh: Number of (b)points on node 0 =                91125
PhiOnMesh: nlist on node 0 =               450822

        iscf     Eharris(eV)        E_KS(eV)     FreeEng(eV)     dDmax    Ef(eV) dHmax(eV)
   scf:    1     -900.438382     -900.516068     -900.585378  0.041401 -6.920804  0.357631
   scf:    2     -900.493610     -900.510256     -900.578988  0.302363 -6.595190  0.279290
   scf:    3     -900.521056     -900.516935     -900.586138  0.119465 -6.721353  0.056150
   scf:    4     -900.517639     -900.518177     -900.587488  0.030774 -6.717128  0.047684
   scf:    5     -900.514366     -900.517100     -900.586318  0.028809 -6.737905  0.076949
   scf:    6     -900.517088     -900.518114     -900.587418  0.036012 -6.701009  0.031103
   scf:    7     -900.518201     -900.518254     -900.587568  0.012330 -6.710675  0.004360
   scf:    8     -900.518222     -900.518240     -900.587553  0.001735 -6.710903  0.007403
   scf:    9     -900.518256     -900.518258     -900.587572  0.003508 -6.708501  0.001083
   scf:   10     -900.518259     -900.518258     -900.587573  0.000361 -6.708463  0.000791
   scf:   11     -900.518259     -900.518259     -900.587574  0.000696 -6.708321  0.000311
   scf:   12     -900.518259     -900.518259     -900.587574  0.000003 -6.708319  0.000302

SCF Convergence by DM+H criterion
max |DM_out - DM_in|         :     0.0000025931
max |H_out - H_in|      (eV) :     0.0003018228
SCF cycle converged after 12 iterations

Using DM_out to compute the final energy and forces
No. of atoms with KB's overlaping orbs in proc 0. Max # of overlaps:       4      26

siesta: E_KS(eV) =             -900.5183

siesta: Atomic forces (eV/Ang):
----------------------------------------
   Tot   -0.001731   -0.002479    0.001211
----------------------------------------
   Max    1.870301
   Res    1.069930    sqrt( Sum f_i^2 / 3N )
----------------------------------------
   Max    1.870301    constrained

Stress tensor Voigt[x,y,z,yz,xz,xy] (kbar):       -8.49       -3.89       -2.20        0.15       -0.69        4.63
(Free)E + p*V (eV/cell)     -897.5550
Target enthalpy (eV/cell)     -900.5876

siesta: Stress tensor (static) (eV/Ang**3):
        -0.001698    0.000658    0.000428
         0.000658   -0.000364   -0.000489
         0.000428   -0.000489   -0.001028

siesta: Pressure (static):          1.65064892  kBar

siesta: Stress tensor (total) (eV/Ang**3):
        -0.005298    0.002887   -0.000433
         0.002887   -0.002425    0.000092
        -0.000433    0.000092   -0.001375

siesta: Pressure (total):          4.85883769  kBar

siesta: Temp_ion =    7688.865 K

                     ====================================
                        Begin MD step =    199
                     ====================================

outcell: Unit cell vectors (Ang):
       10.000000    0.000000    0.000000
        0.000000   10.000000    0.000000
        0.000000    0.000000   10.000000

outcell: Cell vector modules (Ang)   :   10.000000   10.000000   10.000000
outcell: Cell angles (23,13,12) (deg):     90.0000     90.0000     90.0000
outcell: Cell volume (Ang**3)        :   1000.0000
<dSpData1D:S at geom step 199
  <sparsity:sparsity for geom step 199
    nrows_g=36 nrows=36 sparsity=.5988 nnzs=776, refcount: 7>
  <dData1D:(new from dSpData1D) n=776, refcount: 1>
refcount: 1>
new_DM -- step:   199
Re-using DM from previous geometries...
Number of DMs in history: 1
 DM extrapolation coefficients: 
1   1.00000
New DM after history re-use:
<dSpData2D:SpM extrapolated using coords
  <sparsity:sparsity for geom step 199
    nrows_g=36 nrows=36 sparsity=.5988 nnzs=776, refcount: 9>
  <dData2D:(temp array for extrapolation) n=776 m=1, refcount: 1>
refcount: 1>
No. of atoms with KB's overlaping orbs in proc 0. Max # of overlaps:       4      26
New grid distribution:   1
           1       1:   45    1:   45    1:   45

InitMesh: MESH =    90 x    90 x    90 =      729000
InitMesh: (bp) =    45 x    45 x    45 =       91125
InitMesh: Mesh cutoff (required, used) =   200.000   223.865 Ry
ExtMesh (bp) on 0 =   117 x   117 x   117 =     1601613
PhiOnMesh: Number of (b)points on node 0 =                91125
PhiOnMesh: nlist on node 0 =               450893

        iscf     Eharris(eV)        E_KS(eV)     FreeEng(eV)     dDmax    Ef(eV) dHmax(eV)
   scf:    1     -900.325310     -900.546880     -900.616194  0.164210 -6.497696  0.306049
   scf:    2     -900.545135     -900.547202     -900.616499  0.124779 -6.758416  0.213867
   scf:    3     -900.549029     -900.548304     -900.617615  0.047814 -6.659191  0.046673
   scf:    4     -900.547842     -900.548232     -900.617535  0.014817 -6.658824  0.033940
   scf:    5     -900.548382     -900.548352     -900.617666  0.008469 -6.675484  0.031180
   scf:    6     -900.548378     -900.548378     -900.617692  0.013412 -6.660875  0.012234
   scf:    7     -900.548370     -900.548375     -900.617690  0.003728 -6.657756  0.016182
   scf:    8     -900.548383     -900.548380     -900.617694  0.004092 -6.661983  0.008138
   scf:    9     -900.548382     -900.548381     -900.617696  0.003367 -6.665569  0.000196
   scf:   10     -900.548382     -900.548381     -900.617696  0.000045 -6.665579  0.000166

SCF Convergence by DM+H criterion
max |DM_out - DM_in|         :     0.0000453924
max |H_out - H_in|      (eV) :     0.0001659313
SCF cycle converged after 10 iterations

Using DM_out to compute the final energy and forces
No. of atoms with KB's overlaping orbs in proc 0. Max # of overlaps:       4      26

siesta: E_KS(eV) =             -900.5484

siesta: Atomic forces (eV/Ang):
----------------------------------------
   Tot   -0.003790   -0.004386    0.001370
----------------------------------------
   Max    1.533928
   Res    0.854776    sqrt( Sum f_i^2 / 3N )
----------------------------------------
   Max    1.533928    constrained

Stress tensor Voigt[x,y,z,yz,xz,xy] (kbar):       -9.32       -3.61       -1.34        0.66       -0.99        4.61
(Free)E + p*V (eV/cell)     -897.6489
Target enthalpy (eV/cell)     -900.6177

siesta: Stress tensor (static) (eV/Ang**3):
        -0.002158    0.000655    0.000198
         0.000655   -0.000247   -0.000231
         0.000198   -0.000231   -0.000581

siesta: Pressure (static):          1.59489952  kBar

siesta: Stress tensor (total) (eV/Ang**3):
        -0.005820    0.002876   -0.000618
         0.002876   -0.002252    0.000413
        -0.000618    0.000413   -0.000834

siesta: Pressure (total):          4.75653204  kBar

siesta: Temp_ion =    7741.905 K

                     ====================================
                        Begin MD step =    200
                     ====================================

outcell: Unit cell vectors (Ang):
       10.000000    0.000000    0.000000
        0.000000   10.000000    0.000000
        0.000000    0.000000   10.000000

outcell: Cell vector modules (Ang)   :   10.000000   10.000000   10.000000
outcell: Cell angles (23,13,12) (deg):     90.0000     90.0000     90.0000
outcell: Cell volume (Ang**3)        :   1000.0000
<dSpData1D:S at geom step 200
  <sparsity:sparsity for geom step 200
    nrows_g=36 nrows=36 sparsity=.5988 nnzs=776, refcount: 7>
  <dData1D:(new from dSpData1D) n=776, refcount: 1>
refcount: 1>
new_DM -- step:   200
Re-using DM from previous geometries...
Number of DMs in history: 1
 DM extrapolation coefficients: 
1   1.00000
New DM after history re-use:
<dSpData2D:SpM extrapolated using coords
  <sparsity:sparsity for geom step 200
    nrows_g=36 nrows=36 sparsity=.5988 nnzs=776, refcount: 9>
  <dData2D:(temp array for extrapolation) n=776 m=1, refcount: 1>
refcount: 1>
Note: For starting DM, Qtot, Tr[D*S] =         14.00000000         13.96387048
No. of atoms with KB's overlaping orbs in proc 0. Max # of overlaps:       4      26
New grid distribution:   1
           1       1:   45    1:   45    1:   45

InitMesh: MESH =    90 x    90 x    90 =      729000
InitMesh: (bp) =    45 x    45 x    45 =       91125
InitMesh: Mesh cutoff (required, used) =   200.000   223.865 Ry
ExtMesh (bp) on 0 =   117 x   117 x   117 =     1601613
PhiOnMesh: Number of (b)points on node 0 =                91125
PhiOnMesh: nlist on node 0 =               451096

        iscf     Eharris(eV)        E_KS(eV)     FreeEng(eV)     dDmax    Ef(eV) dHmax(eV)
   scf:    1     -900.249385     -900.551902     -900.621216  0.281968 -6.233255  0.716630
   scf:    2     -900.542873     -900.553455     -900.622717  0.410494 -6.859408  0.487811
   scf:    3     -900.562703     -900.559007     -900.628311  0.155217 -6.618892  0.115556
   scf:    4     -900.555924     -900.558339     -900.627572  0.030493 -6.608196  0.080702
   scf:    5     -900.558611     -900.558854     -900.628166  0.041873 -6.691789  0.130289
   scf:    6     -900.559463     -900.559299     -900.628614  0.061736 -6.625683  0.022428
   scf:    7     -900.559287     -900.559294     -900.628609  0.003031 -6.623098  0.026178
   scf:    8     -900.559288     -900.559294     -900.628608  0.002428 -6.625936  0.021056
   scf:    9     -900.559309     -900.559306     -900.628620  0.008263 -6.636351  0.000502
   scf:   10     -900.559306     -900.559306     -900.628621  0.000105 -6.636435  0.000430

SCF Convergence by DM+H criterion
max |DM_out - DM_in|         :     0.0001054103
max |H_out - H_in|      (eV) :     0.0004302642
SCF cycle converged after 10 iterations

Using DM_out to compute the final energy and forces
No. of atoms with KB's overlaping orbs in proc 0. Max # of overlaps:       4      26

siesta: E_KS(eV) =             -900.5593

siesta: Atomic forces (eV/Ang):
----------------------------------------
   Tot    0.000132   -0.003387   -0.000706
----------------------------------------
   Max    1.828845
   Res    0.800829    sqrt( Sum f_i^2 / 3N )
----------------------------------------
   Max    1.828845    constrained

Stress tensor Voigt[x,y,z,yz,xz,xy] (kbar):       -9.43       -3.26       -0.04        1.32       -1.78        4.26
(Free)E + p*V (eV/cell)     -897.9819
Target enthalpy (eV/cell)     -900.6286

siesta: Stress tensor (static) (eV/Ang**3):
        -0.002120    0.000437   -0.000388
         0.000437   -0.000068    0.000152
        -0.000388    0.000152    0.000209

siesta: Pressure (static):          1.05704408  kBar

siesta: Stress tensor (total) (eV/Ang**3):
        -0.005886    0.002659   -0.001112
         0.002659   -0.002032    0.000823
        -0.001112    0.000823   -0.000022

siesta: Pressure (total):          4.24048634  kBar

siesta: Temp_ion =    7762.462 K

coxmol: Writing XMOL coordinates into file xoc.xyz                                                             

siesta: Program's energy decomposition (eV):
siesta: Ebs     =      -214.722989
siesta: Eions   =      1592.294315
siesta: Ena     =       379.641798
siesta: Ekin    =       638.021233
siesta: Enl     =       -94.202475
siesta: Eso     =         0.000000
siesta: Edftu   =         0.000000
siesta: DEna    =       -26.845032
siesta: DUscf   =         1.554862
siesta: DUext   =         0.000000
siesta: Exc     =      -206.435378
siesta: eta*DQ  =         0.000000
siesta: Emadel  =         0.000000
siesta: Emeta   =         0.000000
siesta: Emolmec =         0.000000
siesta: Ekinion =         3.010011
siesta: Eharris =      -897.549295
siesta: Etot    =      -897.549295
siesta: FreeEng =      -897.618610

siesta: Final energy (eV):
siesta:  Band Struct. =    -214.722989
siesta:       Kinetic =     638.021233
siesta:       Hartree =     844.608103
siesta:       Edftu   =       0.000000
siesta:       Eso     =       0.000000
siesta:    Ext. field =       0.000000
siesta:   Exch.-corr. =    -206.435378
siesta:  Ion-electron =   -2278.896576
siesta:       Ion-ion =     102.143311
siesta:       Ekinion =       3.010011
siesta:         Total =    -897.549295
siesta:         Fermi =      -6.636435

siesta: Atomic forces (eV/Ang):
siesta:      1    1.828560   -0.422486    0.171897
siesta:      2   -1.828845    0.419074   -0.171953
siesta:      3   -0.319339    0.185480    0.400525
siesta:      4    0.319756   -0.185455   -0.401175
siesta: ----------------------------------------
siesta:    Tot    0.000132   -0.003387   -0.000706

siesta: Stress tensor (static) (eV/Ang**3):
siesta:    -0.002120    0.000437   -0.000388
siesta:     0.000437   -0.000068    0.000152
siesta:    -0.000388    0.000152    0.000209

siesta: Cell volume =       1000.000000 Ang**3

siesta: Pressure (static):
siesta:                Solid            Molecule  Units
siesta:           0.00000719          0.00000002  Ry/Bohr**3
siesta:           0.00065975          0.00000224  eV/Ang**3
siesta:           1.05704408          0.00358257  kBar
(Free)E+ p_basis*V_orbitals  =        -898.420029
(Free)Eharris+ p_basis*V_orbitals  =        -898.420030

siesta: Electric dipole (a.u.)  =    0.034735    1.260327    0.000794
siesta: Electric dipole (Debye) =    0.088287    3.203435    0.002018

cite: Please see "xoc.bib" for an exhaustive BiBTeX file.
cite: Please clearly indicate Siesta version in published work: 4.1.5
cite: This calculation has made use of the following articles
cite: which are encouraged to be cited in a published work.
        Primary SIESTA paper
          DOI: www.doi.org/10.1088/0953-8984/14/11/302


timer: Elapsed wall time (sec) =     695.515
timer: CPU execution times (sec):

Routine            Calls   Time/call    Tot.time        %
siesta                 1    2950.681    2950.681   100.00
Setup                  1       1.066       1.066     0.04
bands                  1       0.000       0.000     0.00
KSV_init               1       0.000       0.000     0.00
IterGeom             200      14.748    2949.615    99.96
state_init           200       0.001       0.265     0.01
hsparse              200       0.000       0.031     0.00
overlap              200       0.001       0.175     0.01
Setup_H0             200       0.300      60.063     2.04
naefs                400       0.000       0.008     0.00
MolMec               400       0.000       0.000     0.00
kinefsm              400       0.001       0.218     0.01
nlefsm               400       0.002       0.987     0.03
DHSCF_Init           200       0.295      59.036     2.00
DHSCF1               200       0.020       3.962     0.13
INITMESH             200       0.000       0.001     0.00
DHSCF2               200       0.275      55.073     1.87
REMESH               200       0.061      12.273     0.42
REORD               8412       0.004      33.908     1.15
PHION                200       0.161      32.145     1.09
COMM_BSC           11424       0.004      44.266     1.50
POISON              2906       0.309     898.589    30.45
fft                 5812       0.121     701.124    23.76
IterSCF             2306       1.219    2810.630    95.25
setup_H             2506       1.120    2806.242    95.10
DHSCF               2706       1.066    2884.331    97.75
DHSCF3              2706       1.051    2844.655    96.41
rhoofd              2706       0.308     834.584    28.28
XC                  2706       0.308     833.673    28.25
GXC-CellXC          2706       0.294     795.665    26.97
cellXC              2706       0.294     795.555    26.96
vmat                2706       0.015      40.210     1.36
compute_dm          2306       0.002       3.976     0.13
diagon              2306       0.002       3.873     0.13
r-eigvec            2306       0.001       2.399     0.08
r-buildHS           2306       0.000       0.008     0.00
rdiag               2306       0.001       2.340     0.08
rdiag1              2306       0.000       0.033     0.00
rdiag2              2306       0.000       0.046     0.00
rdiag3              2306       0.000       0.280     0.01
rdiag4              2306       0.001       1.874     0.06
r-buildD            2306       0.000       1.098     0.04
MIXER               2106       0.000       0.071     0.00
PostSCF              200       0.393      78.532     2.66
DHSCF4               200       0.198      39.657     1.34
dfscf                200       0.160      31.951     1.08
overfsm              200       0.000       0.051     0.00
state_analysis       200       0.000       0.044     0.00
siesta_move          200       0.000       0.057     0.00
Analysis               1       0.000       0.000     0.00
siesta_analysis        1       0.000       0.000     0.00
optical                1       0.000       0.000     0.00
  
>> End of run:  18-MAR-2024  15:40:02
Job completed
Job completed
